110
 Energy =   -3996.3788785510
Mn   20.3178923    2.2095862   -3.8220806  0.00    0.0143356    0.0270267    0.0012255
 N   21.3662899    3.1398064   -5.4420529  0.00    0.0224170    0.1863336   -0.1722186
 N   21.0439917    1.2851498   -2.0266498  0.00   -0.1016905   -0.1950859    0.2176040
 N   18.5014419    1.3267928   -4.6039396  0.00   -0.1415692   -0.1599089   -0.0905027
 N   18.4500927    3.1474216   -3.3113550  0.00   -0.2314558    0.0585691    0.0924307
 C   21.6234728    2.2123817   -1.2657052  0.00    0.0461617    0.0492636    0.0158034
 C   17.8127072    4.1392388   -2.4534318  0.00    0.0424177   -0.4917147    0.0421073
 C   17.7537103    2.2338780   -3.9848745  0.00   -0.0065810    0.1365313    0.0858484
 C   21.4855948    2.2115141    0.2466983  0.00    0.0102401   -0.0602478    0.2828099
 C   18.7994857    4.5023620   -1.3496866  0.00    0.1277019    0.0163818    0.3918286
 C   16.2418589    2.2270339   -4.0189416  0.00   -0.3143030    0.0154522    0.0419392
 C   17.9300456    0.2960317   -5.4650159  0.00   -0.2181013    0.5060166    0.0820095
 C   20.8366284    5.5055539   -5.2061019  0.00    0.1704521    0.4046029    0.2165841
 C   20.8678749    4.3266324   -6.1582167  0.00    0.3748302   -0.1931734   -0.0921452
 C   19.4788246    4.0883418   -6.7542907  0.00   -0.4066726   -0.1213165   -0.2740957
 C   20.4153465    0.1058427   -1.4131045  0.00    0.2036937    0.1091119    0.1471335
 C   17.4049728   -0.9040969   -4.6807918  0.00   -0.2018550   -0.2328059    0.2299109
 C   18.9229423    0.3216730   -1.1559414  0.00   -0.2924967    0.0780751    0.1331068
 C   18.9989828   -0.1396776   -6.4534423  0.00    0.2793616   -0.1928485   -0.4983776
 C   20.6305761   -1.0962139   -2.3140583  0.00    0.1349729   -0.3661542   -0.1422351
 C   17.3931734    5.3931563   -3.2201745  0.00   -0.2618600    0.3896397   -0.2297571
Mn   23.3835484    2.2095862   -3.5246360  0.00   -0.0065113    0.0131594    0.0200207
 N   22.3351508    3.1398064   -1.9046637  0.00   -0.0257993    0.1650939    0.1460175
 N   22.6574489    1.2851498   -5.3200668  0.00    0.0473681   -0.0738259   -0.2348204
 N   25.1999987    1.3267928   -2.7427770  0.00    0.1835176   -0.0259261    0.0947910
 N   25.2513479    3.1474216   -4.0353616  0.00    0.2188496    0.1759191   -0.0966167
 C   22.0779678    2.2123817   -6.0810114  0.00   -0.0260911    0.0465358    0.0126719
 C   25.8887334    4.1392388   -4.8932848  0.00    0.0121806   -0.3955779    0.0327222
 C   25.9477304    2.2338780   -3.3618421  0.00   -0.0077916    0.0006585    0.0470773
 C   22.2158459    2.2115141   -7.5934149  0.00   -0.0311192    0.0848194   -0.2791759
 C   24.9019549    4.5023620   -5.9970300  0.00   -0.1316889    0.0860977   -0.3971581
 C   27.4595817    2.2270339   -3.3277750  0.00    0.3040459   -0.1597939    0.0421274
 C   25.7713951    0.2960317   -1.8817007  0.00    0.1119212    0.5145430    0.0077738
 C   22.8648123    5.5055539   -2.1406147  0.00   -0.1227555    0.4370646   -0.1988295
 C   22.8335657    4.3266324   -1.1884999  0.00   -0.3311810   -0.2886049    0.2188921
 C   24.2226160    4.0883418   -0.5924259  0.00    0.3342871   -0.1157053    0.2213121
 C   23.2860941    0.1058427   -5.9336120  0.00   -0.3474484    0.2211449   -0.2786819
 C   26.2964679   -0.9040969   -2.6659248  0.00    0.2656326   -0.3943389   -0.3262714
 C   24.7784983    0.3216730   -6.1907751  0.00    0.4086085    0.0936618   -0.2584511
 C   24.7024578   -0.1396776   -0.8932742  0.00   -0.2937649   -0.0986226    0.4894174
 C   23.0708646   -1.0962139   -5.0326583  0.00   -0.1624901   -0.4552286    0.3437252
 C   26.3082673    5.3931563   -4.1265421  0.00    0.2081465    0.2141750    0.1634697
 H   27.8641277    2.5035639   -4.3570820  0.00   -0.1041271   -0.1363011    0.5691751
 H   27.8285184    1.1871259   -3.0412853  0.00   -0.0735765    0.6161319   -0.1748835
 H   27.8257972    2.9852523   -2.5592763  0.00   -0.0915493   -0.3628675   -0.3872348
 H   26.8143747    3.6728387   -5.3678988  0.00   -0.3522566    0.2570875    0.1213340
 H   24.3484718    3.5649506   -6.3354312  0.00    0.2907224    0.5307398    0.1203342
 H   25.4673317    4.9494929   -6.8802187  0.00   -0.3612979   -0.1392970    0.3643367
 H   24.1521219    5.2641962   -5.6008502  0.00    0.2857697   -0.3776869   -0.2669318
 H   26.8691006    6.0967560   -4.8265512  0.00   -0.2414451   -0.2457542    0.3833887
 H   26.9873050    5.0989280   -3.2593992  0.00   -0.3036792    0.2563120   -0.3902554
 H   25.3813033    5.9190124   -3.7218048  0.00    0.4954434   -0.2214414   -0.1488810
 H   26.6377160    0.7527882   -1.2982105  0.00   -0.3531760   -0.2361343   -0.1760914
 H   25.9866774   -0.8088647   -3.7588840  0.00    0.2179262   -0.1285377    0.5481023
 H   25.8610013   -1.8630943   -2.2297001  0.00    0.3331772    0.3684180   -0.3360792
 H   27.4337838   -0.9364380   -2.5947507  0.00   -0.5200879   -0.1394304   -0.1362812
 H   24.8299184   -1.2482189   -0.6598450  0.00   -0.1600147    0.5691251    0.0523982
 H   23.6713412    0.0371789   -1.3461755  0.00    0.4616003   -0.1467919    0.2631837
 H   24.8042478    0.4651589    0.0676685  0.00   -0.2037338   -0.3229086   -0.4065968
 H   22.7743347   -0.0963870   -6.9320131  0.00    0.2273267    0.0415600    0.4635623
 H   24.9352368    0.6404336   -7.2740221  0.00    0.0913027   -0.1113323    0.5268944
 H   25.3421847   -0.6497110   -5.9951482  0.00   -0.1626191    0.5146597   -0.2106302
 H   25.1702772    1.1351425   -5.4948039  0.00   -0.1346550   -0.4383700   -0.3810268
 H   24.0433385   -1.3450944   -4.4923324  0.00   -0.5792724    0.0129102   -0.1596493
 H   22.7464770   -1.9896309   -5.6620851  0.00    0.1899243    0.3241405    0.4055132
 H   22.2610961   -0.8569089   -4.2667553  0.00    0.4535326   -0.2327616   -0.4609152
 H   23.2231620    5.1571344   -3.1652066  0.00   -0.1538008    0.2294361    0.5196798
 H   23.5770955    6.2997654   -1.7387691  0.00   -0.3769535   -0.2915251   -0.2471235
 H   21.8176805    5.9464592   -2.2339783  0.00    0.5471045   -0.1451064   -0.0763670
 H   22.1117404    4.5664087   -0.3393387  0.00    0.3280987   -0.0649014   -0.3535259
 H   25.0169263    4.3080790   -1.3800717  0.00   -0.3204571   -0.1863853    0.4142040
 H   24.3107837    3.0025547   -0.2564316  0.00    0.0829252    0.5715662   -0.1328992
 H   24.3749727    4.7768664    0.3032976  0.00    0.0311029   -0.3144332   -0.4176595
 H   21.6336336    3.0897319   -8.0285718  0.00    0.3659201   -0.5928905    0.0981275
 H   21.8010681    1.2357370   -8.0122437  0.00    0.2150260    0.5032586    0.1350154
 H   23.3163346    2.3084221   -7.8747199  0.00   -0.5605379   -0.0913235    0.0505626
 H   21.0020187    1.2356909    0.5836293  0.00    0.2795837    0.6586608   -0.0279301
 H   20.8342026    3.0896686    0.5693933  0.00    0.3366197   -0.4370931   -0.0899282
 H   22.5170645    2.3085318    0.7223631  0.00   -0.5644841   -0.0228839   -0.1587939
 H   20.9271059   -0.0963870   -0.4147035  0.00   -0.2444141   -0.0766113   -0.4824398
 H   18.4520412   -0.6563229   -0.8075519  0.00    0.1441927    0.4917471   -0.1226334
 H   18.4173344    0.6652949   -2.1181701  0.00    0.2214949   -0.1918943    0.5159338
 H   18.7872477    1.1168933   -0.3504535  0.00   -0.0501345   -0.3642536   -0.3864273
 H   20.1713173   -0.8913645   -3.3371503  0.00    0.2442244   -0.1569597    0.4781388
 H   20.1339046   -2.0119233   -1.8510324  0.00    0.2550691    0.3729195   -0.2872371
 H   21.7481883   -1.2883465   -2.4307942  0.00   -0.5912809    0.0206820    0.0322468
 H   17.0637247    0.7527882   -6.0485061  0.00    0.2800995   -0.2335013    0.2362364
 H   18.2832435   -1.4981926   -4.2621152  0.00   -0.4821535    0.2476171   -0.1411788
 H   16.7905467   -1.5704839   -5.3721731  0.00    0.2767115    0.2301890    0.3757919
 H   16.7490692   -0.5397203   -3.8225265  0.00    0.3008636   -0.3368939   -0.3873212
 H   18.7235300    0.2268907   -7.4971629  0.00    0.2806881   -0.2344193    0.4297468
 H   19.0720102   -1.2773296   -6.4572200  0.00    0.0667958    0.5343139   -0.1401342
 H   20.0032743    0.3045575   -6.1474146  0.00   -0.4633354   -0.2910285   -0.1966152
 H   20.2894673    5.2083846   -4.2511650  0.00    0.2516459    0.2001697   -0.4530287
 H   20.2935509    6.3780989   -5.6993881  0.00    0.2838223   -0.3470247    0.2922616
 H   21.9033658    5.8168755   -4.9516427  0.00   -0.5708115   -0.0837595   -0.0406694
 H   21.5897002    4.5664087   -7.0073779  0.00   -0.3011542    0.0057599    0.4415132
 H   19.2023260    2.9877462   -6.6454926  0.00    0.0355755    0.5759418   -0.0931980
 H   19.4856141    4.3710705   -7.8586537  0.00   -0.1532450   -0.1269688    0.4991589
 H   18.7136992    4.7286836   -6.2027977  0.00    0.2602982   -0.3870133   -0.3441454
 H   16.8870659    3.6728387   -1.9788178  0.00    0.4260391    0.2282392   -0.0762452
 H   19.6552236    5.1128992   -1.7907720  0.00   -0.3557446   -0.3119630    0.2700277
 H   19.2144106    3.5490182   -0.8821696  0.00   -0.1992594    0.5217994   -0.1891564
 H   18.2667624    5.1167219   -0.5507078  0.00    0.3281824   -0.2353053   -0.3281029
 H   16.2753678    5.5679091   -3.0802771  0.00    0.5245916    0.0677611   -0.1494384
 H   17.6203118    5.2545259   -4.3286820  0.00   -0.1575087    0.1567550    0.5491532
 H   17.9709337    6.2922615   -2.8234352  0.00   -0.3515065   -0.3232882   -0.2910167
 H   15.8603941    1.1870977   -3.7494669  0.00    0.0875688    0.5714413   -0.1790358
 H   15.8840869    2.5036698   -5.0653980  0.00    0.0978661   -0.1483666    0.5033404
 H   15.8413977    2.9851748   -3.2676412  0.00    0.0819988   -0.4501730   -0.4807204
110
 Energy =   -3996.4056794630
Mn   20.3181064    2.2099896   -3.8220622  0.00    0.0032671    0.0208675   -0.0003707
 N   21.3666244    3.1425900   -5.4446267  0.00    0.0550547    0.1097691   -0.1197100
 N   21.0424725    1.2822345   -2.0233981  0.00   -0.0333818   -0.0808370    0.1843197
 N   18.4993263    1.3244026   -4.6052915  0.00   -0.1297988   -0.0118071    0.0011296
 N   18.4466341    3.1482963   -3.3099736  0.00   -0.1480645    0.0070059    0.0617498
 C   21.6241630    2.2131178   -1.2654692  0.00    0.0105585   -0.0029536    0.0496153
 C   17.8133411    4.1318907   -2.4528025  0.00    0.0797343   -0.1984356    0.0236391
 C   17.7536118    2.2359174   -3.9835913  0.00   -0.0545670    0.0431640    0.0290311
 C   21.4857484    2.2106141    0.2509241  0.00    0.0238633   -0.0112520    0.0938534
 C   18.8013941    4.5026066   -1.3438317  0.00    0.0258536   -0.0123882    0.1787445
 C   16.2371622    2.2272640   -4.0183142  0.00   -0.1162741    0.0123179    0.0134999
 C   17.9267863    0.3035921   -5.4637897  0.00   -0.0559677    0.2104801    0.0451457
 C   20.8391749    5.5115991   -5.2028661  0.00    0.1064543    0.1669640    0.0639384
 C   20.8734753    4.3237450   -6.1595940  0.00    0.1247677   -0.0771370    0.0094736
 C   19.4727471    4.0865279   -6.7583866  0.00   -0.1527742   -0.0548333   -0.1437715
 C   20.4183907    0.1074730   -1.4109056  0.00    0.0497124    0.0147090    0.0187790
 C   17.4019565   -0.9075765   -4.6773553  0.00   -0.1008948   -0.0589607    0.0823654
 C   18.9185721    0.3228395   -1.1539519  0.00   -0.0861380    0.0283258    0.0847105
 C   19.0031569   -0.1425603   -6.4608889  0.00    0.0846103   -0.0772643   -0.2384214
 C   20.6325934   -1.1016855   -2.3161832  0.00    0.0623779   -0.1524662   -0.0269163
 C   17.3892603    5.3989780   -3.2236077  0.00   -0.1331473    0.1440178   -0.0754025
Mn   23.3834510    2.2097826   -3.5243374  0.00    0.0058704    0.0143412    0.0144027
 N   22.3347655    3.1422733   -1.9024822  0.00   -0.0610324    0.0873086    0.1140949
 N   22.6581565    1.2840460   -5.3235760  0.00    0.0087009   -0.0139323   -0.1913205
 N   25.2027412    1.3264054   -2.7413612  0.00    0.1272289    0.0375254    0.0570730
 N   25.2546180    3.1500502   -4.0368063  0.00    0.1610831    0.0584898   -0.0168409
 C   22.0775775    2.2130763   -6.0808224  0.00   -0.0187307    0.0484161   -0.0536975
 C   25.8889151    4.1333274   -4.8927971  0.00   -0.0427196   -0.1526744    0.0077479
 C   25.9476139    2.2338877   -3.3611396  0.00    0.0561877    0.0267310    0.0177543
 C   22.2153801    2.2127806   -7.5975869  0.00   -0.0171812    0.0331431   -0.0886734
 C   24.8999865    4.5036480   -6.0029658  0.00   -0.0187986    0.0360417   -0.1780455
 C   27.4641250    2.2246461   -3.3271467  0.00    0.1090056   -0.0807344    0.0269681
 C   25.7730679    0.3037206   -1.8815852  0.00   -0.0067650    0.2078374   -0.0064486
 C   22.8629779    5.5120848   -2.1435867  0.00   -0.0819690    0.1749554   -0.0331337
 C   22.8286172    4.3223199   -1.1852298  0.00   -0.1060731   -0.1349596    0.0651686
 C   24.2276115    4.0866131   -0.5891198  0.00    0.1171939   -0.0556519    0.1122112
 C   23.2809020    0.1091466   -5.9377765  0.00   -0.1303149    0.0852792   -0.0723127
 C   26.3004375   -0.9099894   -2.6708007  0.00    0.1414379   -0.1505433   -0.1386731
 C   24.7846038    0.3230720   -6.1946376  0.00    0.1474121    0.0432433   -0.1642049
 C   24.6980687   -0.1411511   -0.8859613  0.00   -0.1121193   -0.0143164    0.2388693
 C   23.0684364   -1.1030168   -5.0275220  0.00   -0.0805283   -0.1986956    0.1187365
 C   26.3113772    5.3963565   -4.1241009  0.00    0.1046592    0.0443404    0.0407860
 H   27.8625715    2.5015271   -4.3485782  0.00   -0.0575743   -0.1110861    0.4567651
 H   27.8274190    1.1963328   -3.0438996  0.00   -0.0157712    0.4529250   -0.1290389
 H   27.8244292    2.9798303   -2.5650641  0.00   -0.0511430   -0.2939213   -0.3094135
 H   26.8091106    3.6766800   -5.3660870  0.00   -0.2596969    0.1962549    0.0770477
 H   24.3528154    3.5728807   -6.3336340  0.00    0.2145308    0.4135482    0.0628534
 H   25.4619321    4.9474107   -6.8747758  0.00   -0.2837752   -0.0825020    0.2414452
 H   24.1563915    5.2585519   -5.6048401  0.00    0.2160373   -0.3034782   -0.2329814
 H   26.8654922    6.0930835   -4.8208240  0.00   -0.1750319   -0.1693174    0.3068126
 H   26.9827669    5.1027581   -3.2652323  0.00   -0.2126412    0.2206868   -0.2776574
 H   25.3887063    5.9157033   -3.7240310  0.00    0.4074640   -0.1691747   -0.1078787
 H   26.6324389    0.7492600   -1.3008426  0.00   -0.2455302   -0.1677490   -0.1108701
 H   25.9899340   -0.8107855   -3.7506943  0.00    0.1800670   -0.1214872    0.3904189
 H   25.8659804   -1.8575890   -2.2347224  0.00    0.2806925    0.2585762   -0.2848550
 H   27.4260126   -0.9385213   -2.5967878  0.00   -0.3653923   -0.1470616   -0.1323833
 H   24.8275280   -1.2397143   -0.6590622  0.00   -0.1406192    0.4312809    0.0823316
 H   23.6782393    0.0349855   -1.3422430  0.00    0.3483370   -0.1280762    0.2277707
 H   24.8012041    0.4603341    0.0615923  0.00   -0.1942926   -0.2379848   -0.2546623
 H   22.7777312   -0.0957668   -6.9250862  0.00    0.1466569    0.0189064    0.3183125
 H   24.9366006    0.6387692   -7.2661493  0.00    0.1203983   -0.0640777    0.3668394
 H   25.3397545   -0.6420211   -5.9982960  0.00   -0.1012729    0.4075870   -0.1902155
 H   25.1682648    1.1285916   -5.5004982  0.00   -0.0847537   -0.3450053   -0.3088785
 H   24.0346826   -1.3449019   -4.4947181  0.00   -0.4619146   -0.0161456   -0.0953188
 H   22.7493149   -1.9847879   -5.6560253  0.00    0.1422006    0.2037317    0.3319757
 H   22.2678732   -0.8603874   -4.2736425  0.00    0.3192071   -0.2060391   -0.3279846
 H   23.2208637    5.1605626   -3.1574421  0.00   -0.1211063    0.2005296    0.4100579
 H   23.5714628    6.2954092   -1.7424631  0.00   -0.2974731   -0.1935401   -0.1997671
 H   21.8258557    5.9442907   -2.2351203  0.00    0.3935074   -0.0716094   -0.0911021
 H   22.1166435    4.5654391   -0.3446220  0.00    0.2283230   -0.0467221   -0.2391130
 H   25.0121379    4.3052941   -1.3738834  0.00   -0.2379615   -0.1619719    0.3324690
 H   24.3120233    3.0110959   -0.2584183  0.00    0.1023343    0.4229116   -0.0798934
 H   24.3754379    4.7721683    0.2970555  0.00    0.0523060   -0.2412164   -0.3109584
 H   21.6391006    3.0808714   -8.0271059  0.00    0.2766619   -0.4549046    0.0319910
 H   21.8042805    1.2432560   -8.0102263  0.00    0.1698688    0.4013203    0.0879846
 H   23.3079578    2.3070565   -7.8739649  0.00   -0.4433331   -0.0764540    0.0182755
 H   21.0061972    1.2455334    0.5832120  0.00    0.2115196    0.5133137    0.0179007
 H   20.8392332    3.0831374    0.5680493  0.00    0.2696869   -0.3472996   -0.0528771
 H   22.5086302    2.3081902    0.7199899  0.00   -0.4371857   -0.0131125   -0.0958921
 H   20.9234543   -0.0975317   -0.4219122  0.00   -0.1801090   -0.0880052   -0.3580831
 H   18.4541965   -0.6489750   -0.8093836  0.00    0.0907990    0.3888714   -0.0830766
 H   18.4206445    0.6624271   -2.1104600  0.00    0.1616110   -0.1512912    0.4099594
 H   18.7864991    1.1114503   -0.3562274  0.00   -0.0714403   -0.2670283   -0.2860094
 H   20.1749669   -0.8937103   -3.3300050  0.00    0.2021369   -0.1422593    0.3748238
 H   20.1377166   -2.0063510   -1.8553238  0.00    0.1990463    0.2567783   -0.2312725
 H   21.7393533   -1.2880376   -2.4303120  0.00   -0.4360184   -0.0143255    0.0123294
 H   17.0679098    0.7492980   -6.0449753  0.00    0.1741408   -0.1628055    0.1672011
 H   18.2760388   -1.4944932   -4.2642239  0.00   -0.3896593    0.1877733   -0.0968920
 H   16.7946815   -1.5670452   -5.3665565  0.00    0.2061680    0.1587402    0.3045229
 H   16.7535650   -0.5447552   -3.8283131  0.00    0.2061687   -0.2913990   -0.2650131
 H   18.7277237    0.2233866   -7.4907407  0.00    0.2433431   -0.1848741    0.2679454
 H   19.0730081   -1.2693464   -6.4593133  0.00    0.0708837    0.3905295   -0.1428903
 H   19.9963504    0.3002078   -6.1503522  0.00   -0.3502968   -0.2446739   -0.1761795
 H   20.2932273    5.2113751   -4.2579351  0.00    0.2051410    0.1784765   -0.3564632
 H   20.2977913    6.3729126   -5.6950215  0.00    0.2276585   -0.2421526    0.2368173
 H   21.8948357    5.8156233   -4.9522512  0.00   -0.4071792   -0.0258776    0.0026499
 H   21.5851994    4.5664939   -7.0007810  0.00   -0.2040292    0.0230731    0.3258306
 H   19.2028570    2.9963513   -6.6468852  0.00   -0.0063280    0.4281648   -0.0868381
 H   19.4833232    4.3691720   -7.8511950  0.00   -0.1567024   -0.0963110    0.3540750
 H   18.7175881    4.7228996   -6.2079403  0.00    0.1771282   -0.3158367   -0.2842891
 H   16.8934323    3.6762488   -1.9799568  0.00    0.3237424    0.1648586   -0.0317426
 H   19.6499078    5.1082374   -1.7867374  0.00   -0.2802534   -0.2584635    0.2365114
 H   19.2114334    3.5568153   -0.8849961  0.00   -0.1358361    0.3951572   -0.1098202
 H   18.2716666    5.1132056   -0.5556108  0.00    0.2591473   -0.1647221   -0.2240003
 H   16.2832065    5.5689210   -3.0825101  0.00    0.3671107    0.0920643   -0.1317972
 H   17.6179578    5.2568675   -4.3204762  0.00   -0.1355791    0.1453455    0.4076053
 H   17.9656810    6.2874302   -2.8277841  0.00   -0.2910668   -0.2255017   -0.2464385
 H   15.8617027    1.1956359   -3.7521413  0.00    0.0408813    0.4445535   -0.1439692
 H   15.8855490    2.5014518   -5.0578760  0.00    0.0571266   -0.1186106    0.3957421
 H   15.8426229    2.9784473   -3.2748239  0.00    0.0215675   -0.3444221   -0.3747521
110
 Energy =   -3996.4362481140
Mn   20.3180215    2.2109050   -3.8221170  0.00   -0.0027649    0.0233346    0.0067561
 N   21.3701475    3.1464149   -5.4495018  0.00    0.0337415    0.0479542   -0.0134991
 N   21.0423268    1.2807226   -2.0148188  0.00   -0.0356411   -0.0587276    0.0392362
 N   18.4930206    1.3271482   -4.6031625  0.00   -0.0182604   -0.0580432   -0.0412264
 N   18.4410221    3.1474840   -3.3075401  0.00   -0.0379453   -0.0384629    0.0170773
 C   21.6238943    2.2117884   -1.2621943  0.00    0.0226580    0.0270857    0.0750915
 C   17.8182208    4.1284692   -2.4520225  0.00    0.0495443   -0.0179929   -0.0148812
 C   17.7497649    2.2359907   -3.9834037  0.00   -0.0759030    0.0921058    0.0765378
 C   21.4872663    2.2111520    0.2514057  0.00    0.0309167    0.0150802   -0.1156068
 C   18.8004026    4.5013286   -1.3395971  0.00   -0.0732364   -0.0131017   -0.0436762
 C   16.2357495    2.2278139   -4.0182709  0.00    0.0961808   -0.0063826   -0.0238857
 C   17.9276152    0.3075675   -5.4623346  0.00    0.0053887    0.0614961    0.0562721
 C   20.8431164    5.5146804   -5.2030799  0.00    0.0176180   -0.0507255   -0.0546465
 C   20.8741400    4.3224586   -6.1568200  0.00   -0.0084263   -0.0296319    0.0282332
 C   19.4707467    4.0852505   -6.7627212  0.00    0.0785272    0.0147071    0.0194465
 C   20.4174302    0.1060843   -1.4128537  0.00   -0.0126937    0.0276013   -0.0244318
 C   17.3991296   -0.9066367   -4.6765156  0.00    0.0381384    0.0904428   -0.0538876
 C   18.9188752    0.3231488   -1.1507550  0.00    0.1094320   -0.0211739    0.0031152
 C   19.0030391   -0.1438640   -6.4670839  0.00   -0.0724749    0.0074386    0.0191208
 C   20.6341125   -1.1045773   -2.3149389  0.00   -0.0218275    0.0559554    0.0557928
 C   17.3854269    5.4007175   -3.2239377  0.00    0.0016881   -0.0674957    0.0650780
Mn   23.3840279    2.2105344   -3.5237369  0.00    0.0132962    0.0152738    0.0096599
 N   22.3308803    3.1449356   -1.8974290  0.00   -0.0541993    0.0059968    0.0178834
 N   22.6577224    1.2846918   -5.3322796  0.00    0.0014714    0.0202331   -0.0589122
 N   25.2079110    1.3297386   -2.7393264  0.00    0.0370819    0.0472532    0.0349753
 N   25.2614671    3.1503574   -4.0358598  0.00    0.0420662    0.0494766   -0.0162323
 C   22.0767940    2.2155673   -6.0850412  0.00    0.0025217    0.0217144   -0.0552058
 C   25.8855107    4.1310851   -4.8929733  0.00   -0.0362182   -0.0208095    0.0343415
 C   25.9519039    2.2358298   -3.3609064  0.00    0.0563318   -0.0159092    0.0332065
 C   22.2148228    2.2132876   -7.5977731  0.00   -0.0101846   -0.0019587    0.1061071
 C   24.9015832    4.5043399   -6.0070328  0.00    0.0820064    0.0039504    0.0496598
 C   27.4652370    2.2223453   -3.3261280  0.00   -0.0893162   -0.0045182    0.0102018
 C   25.7700452    0.3073136   -1.8822350  0.00   -0.0273504    0.0372777   -0.0300912
 C   22.8597496    5.5150199   -2.1415238  0.00   -0.0191138   -0.0527868    0.0844573
 C   22.8283337    4.3189590   -1.1854062  0.00   -0.0034164   -0.0622135    0.0041850
 C   24.2286409    4.0851533   -0.5859072  0.00   -0.0821428    0.0134224   -0.0363515
 C   23.2792094    0.1103921   -5.9367755  0.00   -0.0031068    0.0480006    0.0006667
 C   26.3047931   -0.9121024   -2.6735845  0.00   -0.0145132    0.0698868    0.0378954
 C   24.7861642    0.3241201   -6.2008227  0.00   -0.0992981   -0.0163611   -0.0329074
 C   24.6964985   -0.1399703   -0.8795303  0.00    0.0494781    0.0345725   -0.0172875
 C   23.0662112   -1.1072818   -5.0265939  0.00    0.0213516    0.0437029   -0.0515072
 C   26.3143363    5.3947637   -4.1248130  0.00   -0.0099963   -0.1004004   -0.0683511
 H   27.8607079    2.4964728   -4.3279985  0.00    0.0292504   -0.0404925    0.1888970
 H   27.8279270    1.2155752   -3.0494002  0.00    0.0654765    0.1480008   -0.0407910
 H   27.8227533    2.9665088   -2.5789747  0.00    0.0231204   -0.1158715   -0.1213988
 H   26.7980531    3.6852400   -5.3631915  0.00   -0.1227893    0.1104825    0.0093977
 H   24.3619527    3.5911668   -6.3317537  0.00    0.0770425    0.1586567   -0.0275148
 H   25.4493147    4.9445150   -6.8653335  0.00   -0.1230539    0.0168229    0.0385151
 H   24.1657510    5.2448631   -5.6158715  0.00    0.0573906   -0.1321455   -0.1354479
 H   26.8581299    6.0862379   -4.8070274  0.00   -0.0510213   -0.0321474    0.1344109
 H   26.9740581    5.1131256   -3.2767502  0.00   -0.0500022    0.1212962   -0.0830257
 H   25.4073454    5.9083191   -3.7285708  0.00    0.1951109   -0.0616794   -0.0247121
 H   26.6224425    0.7423137   -1.3049847  0.00   -0.1198043   -0.0975124   -0.0325758
 H   25.9981951   -0.8167769   -3.7344934  0.00    0.0949335   -0.0830362    0.1075077
 H   25.8790063   -1.8469798   -2.2479869  0.00    0.1627516    0.0493276   -0.1636138
 H   27.4110107   -0.9461382   -2.6034041  0.00   -0.0825074   -0.1210074   -0.0997552
 H   24.8208498   -1.2209940   -0.6542186  0.00   -0.0875499    0.1720949    0.1192956
 H   23.6933167    0.0289248   -1.3315129  0.00    0.1091803   -0.0788721    0.1226403
 H   24.7915837    0.4502061    0.0521310  0.00   -0.1476273   -0.0661508   -0.0148848
 H   22.7833317   -0.0953243   -6.9122534  0.00    0.0567777   -0.0191096    0.1427477
 H   24.9433512    0.6365904   -7.2511959  0.00    0.1253936    0.0197557    0.0781916
 H   25.3360126   -0.6238078   -6.0074658  0.00    0.0088440    0.1745981   -0.1388190
 H   25.1651005    1.1132335   -5.5145073  0.00   -0.0005785   -0.1487871   -0.1426189
 H   24.0139497   -1.3463770   -4.4980905  0.00   -0.2156239   -0.0586309    0.0216076
 H   22.7554353   -1.9771965   -5.6408795  0.00    0.0565361   -0.0031434    0.1522587
 H   22.2809985   -0.8702160   -4.2872430  0.00    0.0749562   -0.1260299   -0.1064447
 H   23.2154707    5.1700606   -3.1391627  0.00   -0.0417736    0.1145832    0.1783264
 H   23.5581988    6.2878250   -1.7515104  0.00   -0.1372291   -0.0257001   -0.0878652
 H   21.8423066    5.9423254   -2.2400680  0.00    0.1189288    0.0209429   -0.0893839
 H   22.1259493    4.5634850   -0.3541445  0.00    0.1120099   -0.0142781   -0.0946522
 H   25.0019556    4.2976464   -1.3589026  0.00   -0.0694498   -0.1048936    0.1508827
 H   24.3176440    3.0291483   -0.2612680  0.00    0.1018227    0.1366704    0.0105097
 H   24.3785664    4.7616122    0.2837202  0.00    0.0681099   -0.0786272   -0.1023303
 H   21.6510872    3.0609555   -8.0269817  0.00    0.0983863   -0.1781230   -0.0751013
 H   21.8118574    1.2612662   -8.0068349  0.00    0.0655605    0.1488079    0.0023881
 H   23.2881594    2.3035187   -7.8737709  0.00   -0.1678208   -0.0497316   -0.0325585
 H   21.0153702    1.2682369    0.5851538  0.00    0.0713082    0.2127672    0.0889754
 H   20.8513760    3.0675847    0.5662088  0.00    0.1102508   -0.1211349    0.0092657
 H   22.4893759    2.3077482    0.7165552  0.00   -0.1526505    0.0154976    0.0149529
 H   20.9157913   -0.1022442   -0.4372297  0.00   -0.0895517   -0.1049447   -0.1659440
 H   18.4575890   -0.6316132   -0.8126930  0.00   -0.0020456    0.1563765   -0.0016776
 H   18.4274742    0.6556839   -2.0920980  0.00    0.0470240   -0.0671227    0.1799142
 H   18.7824030    1.1001282   -0.3684364  0.00   -0.0748180   -0.0788738   -0.0923085
 H   20.1842500   -0.9005817   -3.3133619  0.00    0.0957138   -0.0927360    0.1389801
 H   20.1465295   -1.9959763   -1.8657652  0.00    0.0770255    0.0474653   -0.1040090
 H   21.7207889   -1.2895545   -2.4301367  0.00   -0.1419621   -0.0498963   -0.0065445
 H   17.0743306    0.7426494   -6.0380677  0.00    0.0611032   -0.0857912    0.0817105
 H   18.2584023   -1.4863417   -4.2681253  0.00   -0.1847279    0.0663858   -0.0118332
 H   16.8035247   -1.5606267   -5.3527461  0.00    0.0704448    0.0283509    0.1342786
 H   16.7618633   -0.5584821   -3.8389626  0.00    0.0363829   -0.1669419   -0.0553272
 H   18.7391973    0.2151426   -7.4808295  0.00    0.1473591   -0.0784960    0.0113025
 H   19.0766879   -1.2528278   -6.4666068  0.00    0.0620600    0.1336690   -0.1268630
 H   19.9811693    0.2888653   -6.1588084  0.00   -0.1199160   -0.1310829   -0.1032674
 H   20.3025606    5.2199183   -4.2738009  0.00    0.0866115    0.1096497   -0.1404434
 H   20.3080453    6.3630201   -5.6842874  0.00    0.1072145   -0.0523652    0.1073842
 H   21.8779173    5.8156189   -4.9511411  0.00   -0.1173328    0.0403686    0.0531794
 H   21.5770620    4.5680499   -6.9869013  0.00   -0.0882884    0.0475385    0.1653077
 H   19.2015878    3.0146850   -6.6511374  0.00   -0.0549462    0.1477320   -0.0621415
 H   19.4753089    4.3649848   -7.8365484  0.00   -0.1249253   -0.0290210    0.0842351
 H   18.7246740    4.7085149   -6.2209805  0.00    0.0152787   -0.1592561   -0.1470888
 H   16.9075111    3.6831612   -1.9805571  0.00    0.1708208    0.0856439    0.0286469
 H   19.6374257    5.0963605   -1.7755223  0.00   -0.0930799   -0.1236237    0.1351134
 H   19.2059907    3.5739584   -0.8887634  0.00   -0.0335944    0.1337980    0.0163344
 H   18.2832272    5.1064607   -0.5645992  0.00    0.1153150   -0.0326289   -0.0470790
 H   16.2982329    5.5741284   -3.0887831  0.00    0.0956157    0.1019335   -0.0794810
 H   17.6115882    5.2639652   -4.3030391  0.00   -0.0785261    0.0937579    0.1412374
 H   17.9523106    6.2782215   -2.8392537  0.00   -0.1523345   -0.0377663   -0.1398344
 H   15.8627175    1.2152719   -3.7586343  0.00   -0.0401936    0.1684254   -0.0718041
 H   15.8875196    2.4961159   -5.0402700  0.00   -0.0152727   -0.0501711    0.1398793
 H   15.8423493    2.9633975   -3.2913995  0.00   -0.0704726   -0.1182236   -0.1503104
110
 Energy =   -3996.4447238870
Mn   20.3178036    2.2126621   -3.8216660  0.00   -0.0094043   -0.0015543   -0.0020689
 N   21.3731407    3.1503153   -5.4512683  0.00    0.0493949   -0.0462815    0.0340605
 N   21.0399369    1.2765495   -2.0105863  0.00    0.0792777    0.1495971    0.0303495
 N   18.4906191    1.3238424   -4.6054876  0.00   -0.0481985    0.2444999    0.1742785
 N   18.4374808    3.1446421   -3.3059547  0.00    0.0512920    0.0278558    0.0505141
 C   21.6253575    2.2133392   -1.2564135  0.00   -0.0668002   -0.1229367   -0.1430496
 C   17.8225533    4.1269283   -2.4529163  0.00    0.0281651    0.0575892   -0.0225991
 C   17.7438058    2.2422020   -3.9781907  0.00    0.1455982   -0.2221591   -0.1395662
 C   21.4896801    2.2123385    0.2433726  0.00    0.0314061    0.0319661   -0.0465753
 C   18.7950949    4.5001632   -1.3420405  0.00   -0.0530930   -0.0442492   -0.0473628
 C   16.2422897    2.2274713   -4.0199254  0.00    0.0444702    0.0409846    0.0162066
 C   17.9283147    0.3121795   -5.4582516  0.00    0.0362088   -0.0732595   -0.0149714
 C   20.8449759    5.5115115   -5.2070305  0.00    0.0337668   -0.0663527   -0.0663706