130
 Energy =   -4373.0454426620
 C   14.6438426   -0.0346660   -4.6596295  0.00   -0.0792547    0.0551907   -0.1330687
 C   14.1844639    1.8665601   -0.2361620  0.00    0.0932416   -0.0096957   -0.1496380
 C   16.9183162    0.7732287   -4.4530190  0.00   -0.0384343   -0.4885366    2.7331584
 H   16.7877101    0.9259943   -5.4119421  0.00   -0.3438713    0.4234596   -2.8059009
 C   17.9417993   -0.3384345   -4.2864785  0.00   -2.2569046    2.5234977   -0.3864636
 H   18.0516409   -0.5346795   -3.3533505  0.00    0.4169057   -0.7653027    3.4096723
 H   18.7829152   -0.0575809   -4.6556225  0.00    3.1082743    0.9857268   -1.3461737
 H   17.6378540   -1.1245895   -4.7457798  0.00   -1.0892659   -2.8952627   -1.6500917
 C   17.4004156    2.0682106   -3.8296815  0.00   -1.0459572   -2.9088445   -1.4326200
 H   16.7561118    2.7603561   -3.9919647  0.00   -2.3464461    2.5671620   -0.5676986
 H   18.2412305    2.3161609   -4.2198623  0.00    3.1184592    0.9668404   -1.4067217
 H   17.5099563    1.9459982   -2.8850334  0.00    0.4064164   -0.4067422    3.5217741
 C   12.3654568   -0.8650056   -4.6749062  0.00    0.2893343   -0.5522007    2.6966492
 H   12.4437001   -0.6345646   -5.6248134  0.00    0.1850964    0.6969800   -2.7235804
 C   11.8586807   -2.2817299   -4.5734792  0.00    1.0953427    3.0823055   -0.1753438
 H   12.4527282   -2.8684671   -5.0463041  0.00    2.1669214   -2.2073337   -1.6975536
 H   10.9811516   -2.3361379   -4.9586512  0.00   -3.2394066   -0.2560333   -1.4109403
 H   11.8177534   -2.5417838   -3.6488661  0.00   -0.1526284   -0.9908541    3.3191236
 C   11.3908758    0.1045857   -4.0292798  0.00    2.1965918   -2.1358255   -1.4321663
 H   11.3257232   -0.0857837   -3.0903917  0.00   -0.2485896   -0.6442519    3.4313158
 H   10.5267383    0.0070507   -4.4352380  0.00   -3.2144391   -0.3226523   -1.4791733
 H   11.7033978    1.0035522   -4.1547487  0.00    1.1121180    3.2992918   -0.4179992
 C   14.4513941   -0.6729910   -7.0500500  0.00    0.2326035    2.3806432    2.4312181
 H   15.2499275   -0.6909704   -7.5832302  0.00    2.9632923   -0.1382358   -2.0491747
 H   13.7001076   -0.4535962   -7.6057696  0.00   -2.8079272    0.6990192   -2.1441647
 H   14.3140168   -1.5347063   -6.6516049  0.00   -0.4950333   -3.1701321    1.4359541
 C   14.6232285    1.6898221   -6.4274638  0.00    0.0882974   -3.3417766    0.9348575
 H   13.7918930    1.9213207   -6.8469457  0.00   -3.1245506    0.9483976   -1.5879784
 H   15.3432177    1.8214355   -7.0497996  0.00    2.6563338    0.6334060   -2.3122999
 H   14.7594020    2.2468288   -5.6573702  0.00    0.4915772    2.0347398    2.7762804
 C   15.6653696   -3.4559094   -1.5980380  0.00   -0.7412531    1.9759668   -1.9039642
 H   15.8894163   -4.0776653   -0.8740249  0.00    0.6909058   -1.7983723    2.0536820
 C   14.3600600   -3.9089181   -2.2494245  0.00    2.9258586    1.0774823    1.5907437
 H   13.6639953   -3.9307753   -1.5877701  0.00   -2.5895280   -0.1100750    2.3253485
 H   14.4765222   -4.7862624   -2.6220747  0.00    0.3917721   -3.2157067   -1.3721192
 H   14.1199132   -3.2938604   -2.9476427  0.00   -0.8947971    2.2161443   -2.5277311
 C   16.7720614   -3.4948059   -2.6358487  0.00   -2.3975632    0.0220657    2.3589595
 H   16.5559894   -2.8990202   -3.3558549  0.00   -0.7673595    2.2036148   -2.6571271
 H   16.8599347   -4.3890720   -2.9751907  0.00    0.3576221   -3.2634385   -1.2773136
 H   17.5987323   -3.2233533   -2.2313930  0.00    3.0548500    0.9925335    1.4211073
 C   12.7115331    0.0267927    0.2346594  0.00   -1.0375883    0.7063210   -2.5863724
 H   13.1388621   -0.1139866    1.1044269  0.00    1.1797424   -0.4603947    2.6390399
 C   11.4679154    0.8977914    0.4227375  0.00    2.9014105   -1.9167006   -0.3577556
 H   11.7244633    1.7474030    0.7888763  0.00    0.8794516    3.0890725    1.3425904
 H   10.8592725    0.4606469    1.0217827  0.00   -2.2790880   -1.5724714    2.2285754
 H   11.0398341    1.0317551   -0.4257428  0.00   -1.5681656    0.4850099   -3.1252122
 C   12.2820975   -1.3097884   -0.3268202  0.00    1.0944382    2.9631561    1.2097866
 H   11.8749312   -1.1798201   -1.1870710  0.00   -1.5027537    0.4338943   -3.1258984
 H   11.6492293   -1.7180250    0.2679675  0.00   -2.3293776   -1.5318836    2.1691554
 H   13.0485813   -1.8801915   -0.4182297  0.00    2.7464005   -2.1305273   -0.3599162
 C   13.5309816    2.8621215   -2.4034432  0.00    2.0080462   -0.2008740    2.8692662
 H   14.0115762    2.4994795   -3.1504966  0.00    1.7173418   -1.3694655   -2.8346099
 H   13.2848160    3.7709590   -2.5920222  0.00   -0.8948153    3.3771349   -0.6506448
 H   12.7386173    2.3408384   -2.2489236  0.00   -2.7954896   -1.8863562    0.5428978
 C   15.4152918    3.8273648   -1.2041008  0.00   -2.5656874   -2.4146507    0.1356905
 H   15.0227209    4.6934280   -1.0693657  0.00   -1.3506931    3.2540542    0.4913565
 H   15.8849023    3.8156136   -2.0410610  0.00    1.7457227   -0.0674049   -3.0826327
 H   16.0293515    3.6405207   -0.4908564  0.00    2.2388496   -0.6608415    2.5363161
Mn   14.6922933   -0.4662875   -2.1284635  0.00   -0.0100797    0.0074756    0.0194812
 N   15.6309124    0.3849692   -3.8722558  0.00    0.2045547    0.0907737   -0.0261825
 N   13.7028160   -0.7618301   -4.0630887  0.00   -0.2496658   -0.0438979   -0.1077147
 N   13.6713682    0.6961409   -0.6711710  0.00   -0.1380562   -0.0081046    0.0416562
 N   15.5704243   -2.0908904   -1.0395637  0.00    0.0273322   -0.1040575   -0.0076649
 N   14.5875676    0.3129344   -6.0220064  0.00    0.0211102   -0.1033521    0.6173427
 N   14.3737526    2.8233425   -1.2198783  0.00   -0.1226636   -0.1258959    0.1157784
 C   15.4497490    0.0346660    4.6596295  0.00    0.0792547   -0.0551907    0.1330687
 C   15.9091276   -1.8665601    0.2361620  0.00   -0.0932416    0.0096957    0.1496380
 C   13.1752753   -0.7732287    4.4530190  0.00    0.0384343    0.4885366   -2.7331584
 H   13.3058815   -0.9259943    5.4119421  0.00    0.3438714   -0.4234596    2.8059009
 C   12.1517923    0.3384345    4.2864785  0.00    2.2569046   -2.5234977    0.3864636
 H   12.0419507    0.5346795    3.3533505  0.00   -0.4169057    0.7653027   -3.4096723
 H   11.3106764    0.0575809    4.6556225  0.00   -3.1082743   -0.9857268    1.3461737
 H   12.4557375    1.1245895    4.7457798  0.00    1.0892659    2.8952627    1.6500917
 C   12.6931760   -2.0682106    3.8296815  0.00    1.0459572    2.9088445    1.4326200
 H   13.3374798   -2.7603561    3.9919647  0.00    2.3464461   -2.5671620    0.5676986
 H   11.8523610   -2.3161609    4.2198623  0.00   -3.1184592   -0.9668404    1.4067217
 H   12.5836353   -1.9459982    2.8850334  0.00   -0.4064164    0.4067422   -3.5217741
 C   17.7281348    0.8650056    4.6749062  0.00   -0.2893343    0.5522007   -2.6966492
 H   17.6498915    0.6345646    5.6248134  0.00   -0.1850964   -0.6969800    2.7235804
 C   18.2349109    2.2817299    4.5734792  0.00   -1.0953427   -3.0823055    0.1753438
 H   17.6408634    2.8684671    5.0463041  0.00   -2.1669214    2.2073337    1.6975536
 H   19.1124400    2.3361379    4.9586512  0.00    3.2394066    0.2560333    1.4109403
 H   18.2758382    2.5417838    3.6488661  0.00    0.1526284    0.9908541   -3.3191236
 C   18.7027158   -0.1045857    4.0292798  0.00   -2.1965918    2.1358255    1.4321663
 H   18.7678684    0.0857837    3.0903917  0.00    0.2485896    0.6442519   -3.4313158
 H   19.5668532   -0.0070507    4.4352380  0.00    3.2144391    0.3226523    1.4791733
 H   18.3901938   -1.0035522    4.1547487  0.00   -1.1121180   -3.2992918    0.4179992
 C   15.6421975    0.6729910    7.0500500  0.00   -0.2326035   -2.3806432   -2.4312181
 H   14.8436640    0.6909704    7.5832302  0.00   -2.9632923    0.1382358    2.0491747
 H   16.3934840    0.4535962    7.6057696  0.00    2.8079272   -0.6990192    2.1441647
 H   15.7795747    1.5347063    6.6516049  0.00    0.4950333    3.1701321   -1.4359541
 C   15.4703631   -1.6898221    6.4274638  0.00   -0.0882974    3.3417766   -0.9348575
 H   16.3016986   -1.9213207    6.8469457  0.00    3.1245506   -0.9483976    1.5879784
 H   14.7503739   -1.8214355    7.0497996  0.00   -2.6563338   -0.6334060    2.3122999
 H   15.3341896   -2.2468288    5.6573702  0.00   -0.4915772   -2.0347398   -2.7762804
 C   14.4282220    3.4559094    1.5980380  0.00    0.7412531   -1.9759668    1.9039642
 H   14.2041752    4.0776653    0.8740249  0.00   -0.6909058    1.7983723   -2.0536820
 C   15.7335315    3.9089181    2.2494245  0.00   -2.9258586   -1.0774823   -1.5907437
 H   16.4295963    3.9307753    1.5877701  0.00    2.5895280    0.1100750   -2.3253485
 H   15.6170693    4.7862624    2.6220747  0.00   -0.3917721    3.2157067    1.3721192
 H   15.9736784    3.2938604    2.9476427  0.00    0.8947971   -2.2161443    2.5277311
 C   13.3215302    3.4948059    2.6358487  0.00    2.3975632   -0.0220657   -2.3589595
 H   13.5376022    2.8990202    3.3558549  0.00    0.7673595   -2.2036148    2.6571271
 H   13.2336569    4.3890720    2.9751907  0.00   -0.3576221    3.2634385    1.2773136
 H   12.4948592    3.2233533    2.2313930  0.00   -3.0548500   -0.9925335   -1.4211073
 C   17.3820585   -0.0267927   -0.2346594  0.00    1.0375883   -0.7063210    2.5863724
 H   16.9547295    0.1139866   -1.1044269  0.00   -1.1797424    0.4603947   -2.6390399
 C   18.6256762   -0.8977914   -0.4227375  0.00   -2.9014105    1.9167006    0.3577556
 H   18.3691283   -1.7474030   -0.7888763  0.00   -0.8794516   -3.0890725   -1.3425904
 H   19.2343190   -0.4606469   -1.0217827  0.00    2.2790880    1.5724714   -2.2285754
 H   19.0537575   -1.0317551    0.4257428  0.00    1.5681656   -0.4850099    3.1252122
 C   17.8114940    1.3097884    0.3268202  0.00   -1.0944382   -2.9631561   -1.2097866
 H   18.2186603    1.1798201    1.1870710  0.00    1.5027537   -0.4338943    3.1258984
 H   18.4443623    1.7180250   -0.2679675  0.00    2.3293776    1.5318836   -2.1691554
 H   17.0450103    1.8801915    0.4182297  0.00   -2.7464005    2.1305273    0.3599162
 C   16.5626100   -2.8621215    2.4034432  0.00   -2.0080462    0.2008740   -2.8692662
 H   16.0820153   -2.4994795    3.1504966  0.00   -1.7173418    1.3694655    2.8346099
 H   16.8087756   -3.7709590    2.5920222  0.00    0.8948153   -3.3771349    0.6506448
 H   17.3549743   -2.3408384    2.2489236  0.00    2.7954896    1.8863561   -0.5428979
 C   14.6782998   -3.8273648    1.2041008  0.00    2.5656875    2.4146507   -0.1356905
 H   15.0708707   -4.6934280    1.0693657  0.00    1.3506931   -3.2540542   -0.4913565
 H   14.2086893   -3.8156136    2.0410610  0.00   -1.7457227    0.0674049    3.0826327
 H   14.0642400   -3.6405207    0.4908564  0.00   -2.2388496    0.6608415   -2.5363161
Mn   15.4012983    0.4662875    2.1284635  0.00    0.0100797   -0.0074757   -0.0194812
 N   14.4626792   -0.3849692    3.8722558  0.00   -0.2045547   -0.0907737    0.0261825
 N   16.3907756    0.7618301    4.0630887  0.00    0.2496657    0.0438979    0.1077147
 N   16.4222234   -0.6961409    0.6711710  0.00    0.1380562    0.0081046   -0.0416562
 N   14.5231673    2.0908904    1.0395637  0.00   -0.0273322    0.1040575    0.0076649
 N   15.5060240   -0.3129344    6.0220064  0.00   -0.0211102    0.1033521   -0.6173427
 N   15.7198390   -2.8233425    1.2198783  0.00    0.1226636    0.1258959   -0.1157784
130
 Energy =   -4373.2503062900
 C   14.6436687   -0.0345448   -4.6599216  0.00   -0.0716035    0.0447862   -0.0827824
 C   14.1846686    1.8665388   -0.2364905  0.00    0.0829931   -0.0219679   -0.1141279
 C   16.9182320    0.7721564   -4.4470192  0.00   -0.1530189   -0.4241586    2.2290406
 H   16.7869553    0.9269240   -5.4181015  0.00   -0.2947398    0.3655342   -2.4431052
 C   17.9368450   -0.3328948   -4.2873268  0.00   -1.9683979    2.1869503   -0.3130794
 H   18.0525562   -0.5363594   -3.3458655  0.00    0.3886018   -0.7054422    3.0695864
 H   18.7897386   -0.0554169   -4.6585775  0.00    2.8058882    0.8866708   -1.2139945
 H   17.6354630   -1.1309451   -4.7494021  0.00   -0.9766173   -2.6097345   -1.4824728
 C   17.3981196    2.0618252   -3.8328263  0.00   -0.9108643   -2.5288212   -1.2190453
 H   16.7509610    2.7659916   -3.9932108  0.00   -2.1094249    2.3159171   -0.5071841
 H   18.2480763    2.3182833   -4.2229502  0.00    2.8128123    0.8748066   -1.2656801
 H   17.5108485    1.9451053   -2.8773023  0.00    0.3715248   -0.3463624    3.1763849
 C   12.3660920   -0.8662177   -4.6689866  0.00    0.3755392   -0.4186554    2.2074413
 H   12.4441066   -0.6330345   -5.6307923  0.00    0.1554636    0.6107460   -2.3701453
 C   11.8610853   -2.2749635   -4.5738643  0.00    0.9540681    2.6569415   -0.1366064
 H   12.4574851   -2.8733125   -5.0500307  0.00    1.9498792   -1.9958262   -1.5255889
 H   10.9740405   -2.3366998   -4.9617487  0.00   -2.9205704   -0.2341333   -1.2711742
 H   11.8174184   -2.5439589   -3.6415801  0.00   -0.1451391   -0.9149888    2.9962995
 C   11.3956979    0.0998972   -4.0324237  0.00    1.9147863   -1.8571311   -1.2244652
 H   11.3251776   -0.0871979   -3.0828594  0.00   -0.2368527   -0.5644233    3.0980880
 H   10.5196821    0.0063426   -4.4384852  0.00   -2.8959020   -0.2881417   -1.3306914
 H   11.7058392    1.0107949   -4.1556663  0.00    0.9980223    2.9778164   -0.3720727
 C   14.4519049   -0.6677649   -7.0447130  0.00    0.2009817    2.0675493    2.1320738
 H   15.2564327   -0.6912737   -7.5877286  0.00    2.6689907   -0.1316341   -1.8564538
 H   13.6939438   -0.4520616   -7.6104765  0.00   -2.5379222    0.6217450   -1.9466963
 H   14.3129303   -1.5416652   -6.6484527  0.00   -0.4435241   -2.8555173    1.2848409
 C   14.6234225    1.6824863   -6.4254116  0.00    0.0763623   -2.9186552    0.8272827
 H   13.7850342    1.9234027   -6.8504316  0.00   -2.8091517    0.8628579   -1.4320652
 H   15.3490490    1.8228261   -7.0548755  0.00    2.4030880    0.5872467   -2.0966103
 H   14.7604813    2.2512956   -5.6512757  0.00    0.4411579    1.8365636    2.4931314
 C   15.6637424   -3.4515718   -1.6022177  0.00   -0.6195733    1.6878964   -1.4746002
 H   15.8909330   -4.0816130   -0.8695167  0.00    0.6057718   -1.5612157    1.7782004
 C   14.3664829   -3.9065527   -2.2459326  0.00    2.5455933    0.9596941    1.3783960
 H   13.6583107   -3.9310169   -1.5826656  0.00   -2.3466109   -0.1035770    2.0905780
 H   14.4773823   -4.7933215   -2.6250868  0.00    0.3496250   -2.8898514   -1.2336047
 H   14.1179490   -3.2889955   -2.9531916  0.00   -0.8212441    1.9871305   -2.2811148
 C   16.7667983   -3.4947574   -2.6306703  0.00   -2.0829202    0.0423615    2.0353719
 H   16.5543050   -2.8941828   -3.3616878  0.00   -0.6735012    1.9798237   -2.4000719
 H   16.8607198   -4.3962358   -2.9779947  0.00    0.3244977   -2.9445141   -1.1553372
 H   17.6054384   -3.2211744   -2.2282734  0.00    2.7593480    0.8942798    1.2735669
 C   12.7092554    0.0283433    0.2289817  0.00   -0.7563557    0.6579728   -2.1367842
 H   13.1414518   -0.1149973    1.1102200  0.00    1.0167168   -0.4055604    2.3002854
 C   11.4742846    0.8935839    0.4219521  0.00    2.5259272   -1.6640635   -0.3327104
 H   11.7263938    1.7541841    0.7918235  0.00    0.7853754    2.7891377    1.2116314
 H   10.8542694    0.4571950    1.0266747  0.00   -2.0526878   -1.4114870    2.0051650
 H   11.0363917    1.0328198   -0.4326033  0.00   -1.4234700    0.4451272   -2.8055472
 C   12.2845000   -1.3032836   -0.3241646  0.00    0.9494522    2.5739455    1.0296946
 H   11.8716324   -1.1788676   -1.1939331  0.00   -1.3608768    0.3715965   -2.8209129
 H   11.6441158   -1.7213877    0.2727291  0.00   -2.0936286   -1.3785973    1.9480224
 H   13.0546102   -1.8848684   -0.4190198  0.00    2.4767858   -1.9289901   -0.3285851
 C   13.5353897    2.8616806   -2.3971446  0.00    1.7577900   -0.1822006    2.5090018
 H   14.0153462    2.4964734   -3.1567191  0.00    1.5390571   -1.2332885   -2.5633421
 H   13.2828518    3.7783726   -2.5934505  0.00   -0.8048030    3.0395656   -0.5839058
 H   12.7324807    2.3366975   -2.2477319  0.00   -2.5180742   -1.7014724    0.4849903
 C   15.4096597    3.8220641   -1.2038028  0.00   -2.2445748   -2.1181430    0.1251550
 H   15.0197559    4.7005713   -1.0682870  0.00   -1.2072004    2.9467707    0.4405470
 H   15.8887346    3.8154656   -2.0478279  0.00    1.5691219   -0.0589229   -2.7657287
 H   16.0342663    3.6390701   -0.4852886  0.00    2.0209115   -0.5911945    2.2807267
Mn   14.6922712   -0.4662710   -2.1284207  0.00   -0.0078442    0.0086629    0.0178276
 N   15.6313615    0.3851685   -3.8723133  0.00    0.1485922    0.0655423    0.0014450
 N   13.7022680   -0.7619264   -4.0633253  0.00   -0.1954520   -0.0342467   -0.0735366
 N   13.6710651    0.6961231   -0.6710796  0.00   -0.1178240    0.0131909    0.0067297
 N   15.5704843   -2.0911188   -1.0395805  0.00    0.0197738   -0.0543557    0.0033076
 N   14.5876141    0.3127076   -6.0206512  0.00    0.0231951   -0.1171510    0.6555338
 N   14.3734834    2.8230662   -1.2196241  0.00   -0.1270349   -0.1739911    0.1720194
 C   15.4499228    0.0345448    4.6599216  0.00    0.0716035   -0.0447862    0.0827825
 C   15.9089229   -1.8665388    0.2364905  0.00   -0.0829931    0.0219679    0.1141279
 C   13.1753596   -0.7721564    4.4470192  0.00    0.1530189    0.4241586   -2.2290406
 H   13.3066362   -0.9269240    5.4181015  0.00    0.2947398   -0.3655342    2.4431052
 C   12.1567465    0.3328948    4.2873268  0.00    1.9683979   -2.1869503    0.3130794
 H   12.0410354    0.5363594    3.3458655  0.00   -0.3886018    0.7054422   -3.0695864
 H   11.3038530    0.0554169    4.6585775  0.00   -2.8058882   -0.8866708    1.2139945
 H   12.4581286    1.1309451    4.7494021  0.00    0.9766173    2.6097345    1.4824728
 C   12.6954720   -2.0618252    3.8328263  0.00    0.9108643    2.5288212    1.2190453
 H   13.3426306   -2.7659916    3.9932108  0.00    2.1094249   -2.3159171    0.5071841
 H   11.8455153   -2.3182833    4.2229502  0.00   -2.8128123   -0.8748066    1.2656801
 H   12.5827431   -1.9451053    2.8773023  0.00   -0.3715248    0.3463624   -3.1763849
 C   17.7274995    0.8662177    4.6689866  0.00   -0.3755392    0.4186554   -2.2074413
 H   17.6494850    0.6330345    5.6307923  0.00   -0.1554636   -0.6107460    2.3701453
 C   18.2325063    2.2749635    4.5738643  0.00   -0.9540681   -2.6569415    0.1366064
 H   17.6361064    2.8733125    5.0500307  0.00   -1.9498792    1.9958262    1.5255889
 H   19.1195510    2.3366998    4.9617487  0.00    2.9205704    0.2341333    1.2711742
 H   18.2761731    2.5439589    3.6415801  0.00    0.1451391    0.9149888   -2.9962995
 C   18.6978937   -0.0998972    4.0324237  0.00   -1.9147863    1.8571311    1.2244652
 H   18.7684140    0.0871979    3.0828594  0.00    0.2368527    0.5644233   -3.0980880
 H   19.5739095   -0.0063426    4.4384852  0.00    2.8959020    0.2881417    1.3306914
 H   18.3877524   -1.0107949    4.1556663  0.00   -0.9980223   -2.9778164    0.3720727
 C   15.6416867    0.6677649    7.0447130  0.00   -0.2009817   -2.0675493   -2.1320738
 H   14.8371588    0.6912737    7.5877286  0.00   -2.6689907    0.1316341    1.8564538
 H   16.3996478    0.4520616    7.6104765  0.00    2.5379222   -0.6217450    1.9466963
 H   15.7806613    1.5416652    6.6484527  0.00    0.4435241    2.8555173   -1.2848409
 C   15.4701691   -1.6824863    6.4254116  0.00   -0.0763623    2.9186552   -0.8272827
 H   16.3085574   -1.9234027    6.8504316  0.00    2.8091517   -0.8628579    1.4320652
 H   14.7445425   -1.8228261    7.0548755  0.00   -2.4030880   -0.5872467    2.0966103
 H   15.3331103   -2.2512956    5.6512757  0.00   -0.4411579   -1.8365636   -2.4931314
 C   14.4298492    3.4515718    1.6022177  0.00    0.6195733   -1.6878964    1.4746002
 H   14.2026586    4.0816130    0.8695167  0.00   -0.6057718    1.5612157   -1.7782004
 C   15.7271087    3.9065527    2.2459326  0.00   -2.5455933   -0.9596941   -1.3783960
 H   16.4352808    3.9310169    1.5826656  0.00    2.3466109    0.1035770   -2.0905780
 H   15.6162093    4.7933215    2.6250868  0.00   -0.3496250    2.8898514    1.2336047
 H   15.9756426    3.2889955    2.9531916  0.00    0.8212441   -1.9871305    2.2811148
 C   13.3267933    3.4947574    2.6306703  0.00    2.0829202   -0.0423615   -2.0353719
 H   13.5392866    2.8941828    3.3616878  0.00    0.6735012   -1.9798237    2.4000719
 H   13.2328718    4.3962358    2.9779947  0.00   -0.3244977    2.9445141    1.1553372
 H   12.4881532    3.2211744    2.2282734  0.00   -2.7593480   -0.8942798   -1.2735669
 C   17.3843362   -0.0283433   -0.2289817  0.00    0.7563557   -0.6579728    2.1367842
 H   16.9521397    0.1149973   -1.1102200  0.00   -1.0167168    0.4055604   -2.3002854
 C   18.6193070   -0.8935839   -0.4219521  0.00   -2.5259272    1.6640635    0.3327104
 H   18.3671977   -1.7541841   -0.7918235  0.00   -0.7853754   -2.7891377   -1.2116314
 H   19.2393221   -0.4571950   -1.0266747  0.00    2.0526878    1.4114870   -2.0051650
 H   19.0571999   -1.0328198    0.4326033  0.00    1.4234700   -0.4451272    2.8055472
 C   17.8090915    1.3032836    0.3241646  0.00   -0.9494522   -2.5739455   -1.0296946
 H   18.2219592    1.1788676    1.1939331  0.00    1.3608768   -0.3715965    2.8209129
 H   18.4494757    1.7213877   -0.2727291  0.00    2.0936286    1.3785973   -1.9480224
 H   17.0389814    1.8848684    0.4190198  0.00   -2.4767858    1.9289901    0.3285851
 C   16.5582018   -2.8616806    2.3971446  0.00   -1.7577900    0.1822006   -2.5090018
 H   16.0782453   -2.4964734    3.1567191  0.00   -1.5390571    1.2332885    2.5633421
 H   16.8107398   -3.7783726    2.5934505  0.00    0.8048030   -3.0395656    0.5839058
 H   17.3611108   -2.3366975    2.2477319  0.00    2.5180742    1.7014724   -0.4849903
 C   14.6839319   -3.8220641    1.2038028  0.00    2.2445748    2.1181430   -0.1251550
 H   15.0738356   -4.7005713    1.0682870  0.00    1.2072004   -2.9467707   -0.4405470
 H   14.2048570   -3.8154656    2.0478279  0.00   -1.5691219    0.0589229    2.7657287
 H   14.0593253   -3.6390701    0.4852886  0.00   -2.0209115    0.5911945   -2.2807267
Mn   15.4013204    0.4662710    2.1284207  0.00    0.0078443   -0.0086629   -0.0178276
 N   14.4622300   -0.3851685    3.8723133  0.00   -0.1485922   -0.0655423   -0.0014450
 N   16.3913235    0.7619264    4.0633253  0.00    0.1954520    0.0342467    0.0735366
 N   16.4225264   -0.6961231    0.6710796  0.00    0.1178240   -0.0131909   -0.0067297
 N   14.5231073    2.0911188    1.0395805  0.00   -0.0197738    0.0543557   -0.0033076
 N   15.5059775   -0.3127076    6.0206512  0.00   -0.0231951    0.1171510   -0.6555338
 N   15.7201082   -2.8230662    1.2196241  0.00    0.1270349    0.1739911   -0.1720194
130
 Energy =   -4373.5915017690
 C   14.6433037   -0.0343745   -4.6599130  0.00   -0.0570799    0.0201569    0.0269221
 C   14.1850778    1.8662747   -0.2368303  0.00    0.0637616   -0.0592716   -0.0480327
 C   16.9160895    0.7701905   -4.4384122  0.00   -0.3164580   -0.3260444    1.4778629
 H   16.7856354    0.9285929   -5.4295085  0.00   -0.2256283    0.2793058   -1.9039847
 C   17.9276152   -0.3228063   -4.2885086  0.00   -1.4058479    1.5405354   -0.2027844
 H   18.0546767   -0.5401202   -3.3303291  0.00    0.3245087   -0.5820795    2.4459280
 H   18.8040287   -0.0509377   -4.6647459  0.00    2.2246039    0.7089280   -0.9657209
 H   17.6305665   -1.1441914   -4.7568702  0.00   -0.7730302   -2.0722848   -1.1724588
 C   17.3938653    2.0500647   -3.8381793  0.00   -0.6507040   -1.7857802   -0.8400494
 H   16.7403193    2.7777689   -3.9957326  0.00   -1.6706623    1.8406155   -0.3987705
 H   18.2623756    2.3227619   -4.2293474  0.00    2.2326565    0.6898569   -1.0059325
 H   17.5127944    1.9435812   -2.8611574  0.00    0.3023255   -0.2527067    2.5398172
 C   12.3693226   -0.8674296   -4.6603591  0.00    0.4878997   -0.2281808    1.4738432
 H   12.4447647   -0.6301361   -5.6418436  0.00    0.1151687    0.4825329   -1.8441165
 C   11.8655443   -2.2628782   -4.5743104  0.00    0.6833579    1.8481482   -0.0807009
 H   12.4673438   -2.8835138   -5.0577220  0.00    1.5509144   -1.5962968   -1.2077361
 H   10.9592094   -2.3379265   -4.9681940  0.00   -2.3190852   -0.1808433   -1.0106420
 H   11.8165946   -2.5488550   -3.6263200  0.00   -0.1252960   -0.7570435    2.3981519
 C   11.4046649    0.0912567   -4.0378720  0.00    1.3715857   -1.3068114   -0.8475797
 H   11.3238281   -0.0898744   -3.0670749  0.00   -0.2035411   -0.4297512    2.4781256
 H   10.5050013    0.0049115   -4.4452097  0.00   -2.2901832   -0.2319736   -1.0587216
 H   11.7108542    1.0259548   -4.1575008  0.00    0.7904656    2.3712668   -0.2903850
 C   14.4528252   -0.6581741   -7.0345766  0.00    0.1348869    1.4659183    1.5464716
 H   15.2699565   -0.6920227   -7.5972596  0.00    2.1190684   -0.1073639   -1.4836009
 H   13.6809827   -0.4490016   -7.6205189  0.00   -2.0245177    0.4873700   -1.5599287
 H   14.3107105   -1.5561359   -6.6420409  0.00   -0.3479344   -2.2696508    1.0143160
 C   14.6237733    1.6687520   -6.4213900  0.00    0.0694285   -2.0941238    0.6124720
 H   13.7708600    1.9278749   -6.8577084  0.00   -2.2250260    0.6877902   -1.1389016
 H   15.3613477    1.8259952   -7.0656597  0.00    1.9193198    0.4820943   -1.6793861
 H   14.7626985    2.2606464   -5.6387291  0.00    0.3483966    1.4607449    1.9727043
 C   15.6611582   -3.4440801   -1.6069142  0.00   -0.4284656    1.2607524   -0.8326669
 H   15.8938115   -4.0888472   -0.8613330  0.00    0.4794037   -1.2082831    1.3736242
 C   14.3783451   -3.9018145   -2.2395766  0.00    1.8006032    0.7116485    0.9911751
 H   13.6462561   -3.9315928   -1.5721175  0.00   -1.8801369   -0.0880930    1.6522726
 H   14.4791163   -4.8078888   -2.6313116  0.00    0.2826787   -2.2778581   -0.9689078
 H   14.1136110   -3.2790299   -2.9648009  0.00   -0.6706323    1.5740572   -1.8218052
 C   16.7571284   -3.4942830   -2.6213890  0.00   -1.4628555    0.0515996    1.4348011
 H   16.5510964   -2.8842084   -3.3739275  0.00   -0.5169188    1.5747365   -1.9219857
 H   16.8623916   -4.4112150   -2.9839050  0.00    0.2527895   -2.3399911   -0.9147976
 H   17.6195106   -3.2166396   -2.2218944  0.00    2.2000775    0.7104694    1.0048134
 C   12.7074810    0.0319290    0.2203808  0.00   -0.3296379    0.5661038   -1.4683728
 H   13.1460736   -0.1169469    1.1209896  0.00    0.7785522   -0.3216927    1.7958768
 C   11.4860744    0.8858719    0.4201450  0.00    1.8056321   -1.1643174   -0.2505042
 H   11.7302954    1.7683955    0.7979900  0.00    0.6160442    2.2195485    0.9638564
 H   10.8438694    0.4500990    1.0368103  0.00   -1.6174686   -1.1180416    1.5858987
 H   11.0290517    1.0351711   -0.4467115  0.00   -1.1446848    0.3620369   -2.2263026
 C   12.2888915   -1.2913382   -0.3196399  0.00    0.6902855    1.8196398    0.7037109
 H   11.8646520   -1.1772064   -1.2082895  0.00   -1.0943219    0.2734885   -2.2541601
 H   11.6335586   -1.7283594    0.2825332  0.00   -1.6518745   -1.0827334    1.5426286
 H   13.0671959   -1.8947583   -0.4207359  0.00    1.9724588   -1.5411165   -0.2662981
 C   13.5437094    2.8607428   -2.3853017  0.00    1.2598192   -0.1538355    1.8067871
 H   14.0230554    2.4902266   -3.1698255  0.00    1.2162671   -0.9794666   -2.0445736
 H   13.2787876    3.7937486   -2.5963845  0.00   -0.6283180    2.4113789   -0.4469767
 H   12.7197198    2.3280482   -2.2453207  0.00   -1.9927475   -1.3555245    0.3855789
 C   15.3990528    3.8119868   -1.2031345  0.00   -1.6207470   -1.5322917    0.1188763
 H   15.0137475    4.7156856   -1.0660778  0.00   -0.9482168    2.3556152    0.3450936
 H   15.8966481    3.8151878   -2.0617169  0.00    1.2315800   -0.0546138   -2.1812754
 H   16.0445571    3.6361209   -0.4737750  0.00    1.6057779   -0.4690161    1.8037396
Mn   14.6922458   -0.4662048   -2.1283272  0.00   -0.0051436    0.0095403    0.0158931
 N   15.6317030    0.3853135   -3.8720168  0.00    0.0561207    0.0268096    0.0422250
 N   13.7016177   -0.7620385   -4.0634268  0.00   -0.1013722   -0.0189569   -0.0202432
 N   13.6705435    0.6964267   -0.6714011  0.00   -0.0774229    0.0448166   -0.0415298
 N   15.5705285   -2.0909395   -1.0394459  0.00    0.0079600    0.0238517    0.0244305
 N   14.5877803    0.3118364   -6.0161805  0.00    0.0241818   -0.1332147    0.6719524
 N   14.3726487    2.8214848   -1.2179700  0.00   -0.1261523   -0.2325546    0.2488552
 C   15.4502879    0.0343745    4.6599130  0.00    0.0570799   -0.0201569   -0.0269221
 C   15.9085137   -1.8662747    0.2368303  0.00   -0.0637616    0.0592718    0.0480330
 C   13.1775021   -0.7701905    4.4384122  0.00    0.3164580    0.3260444   -1.4778628
 H   13.3079562   -0.9285929    5.4295085  0.00    0.2256283   -0.2793058    1.9039847
 C   12.1659764    0.3228063    4.2885086  0.00    1.4058479   -1.5405354    0.2027844
 H   12.0389149    0.5401202    3.3303291  0.00   -0.3245087    0.5820795   -2.4459280
 H   11.2895628    0.0509377    4.6647459  0.00   -2.2246039   -0.7089280    0.9657209
 H   12.4630251    1.1441914    4.7568702  0.00    0.7730302    2.0722848    1.1724588
 C   12.6997263   -2.0500647    3.8381793  0.00    0.6507040    1.7857802    0.8400494
 H   13.3532722   -2.7777689    3.9957326  0.00    1.6706623   -1.8406155    0.3987705
 H   11.8312159   -2.3227619    4.2293474  0.00   -2.2326565   -0.6898569    1.0059325
 H   12.5807971   -1.9435812    2.8611574  0.00   -0.3023258    0.2527068   -2.5398171
 C   17.7242689    0.8674296    4.6603591  0.00   -0.4878997    0.2281808   -1.4738432
 H   17.6488269    0.6301361    5.6418436  0.00   -0.1151687   -0.4825329    1.8441165
 C   18.2280472    2.2628782    4.5743104  0.00   -0.6833579   -1.8481482    0.0807009
 H   17.6262477    2.8835138    5.0577220  0.00   -1.5509144    1.5962968    1.2077361
 H   19.1343821    2.3379265    4.9681940  0.00    2.3190852    0.1808433    1.0106420
 H   18.2769970    2.5488550    3.6263200  0.00    0.1252960    0.7570435   -2.3981519