67
 Energy =   -2155.0283142560
 N    2.7344119    7.4617592    9.8016229  0.00   -0.1919011    0.0835049    0.0076452
 N    1.9499175    5.7128437   10.9213359  0.00   -0.1844125    0.0681035   -0.0436803
 C    1.6717147    6.6920309   10.0480512  0.00    0.1442934   -0.1353455    0.1100378
 C    1.0842415    4.6021142   11.3254506  0.00    0.1564643    0.1626236    0.0341527
 C    0.4352578    3.8677939   10.1352357  0.00   -0.1889419   -0.1829872   -0.3508090
 C    2.0033099    3.6080725   12.0294306  0.00    0.2607369   -0.2617617    0.2616913
 C    2.7874921    8.6857198    8.9963194  0.00    0.1243291   -0.2980037    0.0561020
 C    0.3148906    6.8956973    9.4202425  0.00   -0.3504122   -0.0675791   -0.2144854
 C    0.0093671    5.0514883   12.3336960  0.00   -0.1981046    0.1531053    0.1509243
 C    2.0423395    9.8525977    9.6476206  0.00   -0.3989433    0.3772743    0.2509942
 C    2.3050866    8.5035411    7.5497821  0.00   -0.3274434   -0.1821104   -0.4015469
 C    4.2651517    9.0454060    8.9334912  0.00    0.7581072    0.1697029   -0.0728575
 N    5.0715027    7.4617592   12.7212351  0.00    0.4730609    0.0519905    0.4458218
 N    5.8559971    5.7128437   11.6015220  0.00   -0.4990656   -0.2686269    0.1437342
 C    6.1341999    6.6920309   12.4748068  0.00    0.4792917   -0.0248578   -1.4622507
 C    6.7216730    4.6021142   11.1974074  0.00   -0.1630191    0.2015841   -0.0260950
 C    7.3706568    3.8677939   12.3876223  0.00    0.2489343   -0.0860162    0.4802983
 C    5.8026047    3.6080725   10.4934273  0.00   -0.3161957   -0.4330741   -0.4345590
 C    5.0184225    8.6857198   13.5265385  0.00   -0.1346117   -0.1382540   -0.1399079
 C    7.7965475    5.0514883   10.1891620  0.00    0.3108715    0.0980612   -0.2279202
 C    5.7635751    9.8525977   12.8752373  0.00    0.2577322    0.2334940   -0.2410843
 C    5.5008280    8.5035411   14.9730759  0.00    0.2933141   -0.1875851    0.4159836
 C    3.5407629    9.0454060   13.5893668  0.00   -0.5345347    0.1995714   -0.0682116
Mn    3.9029573    6.4520221   11.2614290  0.00    0.0018531   -0.0515624    0.0129902
 C    7.6555902    6.9307153   12.4748068  0.00    0.0928583    0.6486801    1.0722379
 H    7.9888622    7.2581897   11.4349561  0.00   -0.2757243   -0.0343018    0.6817142
 H    8.1916400    5.9656670   12.7592916  0.00   -0.2236020    0.6696675   -0.1332051
 H    7.9124916    7.7449775   13.2301729  0.00    0.0713237   -0.3981313   -0.3524282
 H    8.5054956    3.9142712   12.2897452  0.00   -0.5031701   -0.1345052    0.1922294
 H    7.0338722    2.7786842   12.3915540  0.00    0.2928333    0.5490012    0.1597615
 H    7.0524707    4.3674588   13.3616304  0.00    0.1983045   -0.3978287   -0.4041044
 H    6.0765090    2.5475951   10.8095970  0.00   -0.2509235    0.4575886   -0.3524607
 H    5.9244144    3.7115066    9.3646833  0.00   -0.2089747   -0.1422259    0.4935468
 H    4.7202584    3.8224716   10.7800610  0.00    0.5383911   -0.2078743   -0.1648632
 H    7.2917806    5.4468168    9.2465460  0.00    0.3002825   -0.1461935    0.4243511
 H    8.4606368    4.1645055    9.9211208  0.00   -0.2817261    0.4390213    0.0417769
 H    8.4325334    5.8756381   10.6538105  0.00   -0.2109551   -0.6299544   -0.5097962
 H    5.4822666    9.9148643   11.7722470  0.00    0.1720176    0.0368245    0.5176706
 H    6.8873601    9.6872639   12.9720422  0.00   -0.5102216    0.1883698   -0.1219561
 H    5.4762922   10.8250749   13.3961557  0.00    0.2106787   -0.4035566   -0.2705681
 H    6.4246171    9.1477967   15.1495627  0.00   -0.4155635   -0.3619772    0.0724426
 H    5.7616651    7.4082310   15.1515668  0.00   -0.1209424    0.5578073    0.0342471
 H    4.6743066    8.8193585   15.6919090  0.00    0.5179782   -0.1912337   -0.2244832
 H    2.9395387    8.1288380   13.9024674  0.00    0.2255652    0.4650982   -0.1265126
 H    3.1911784    9.3966422   12.5627106  0.00    0.0415902   -0.1883296    0.4889973
 H    3.3848594    9.8801294   14.3499785  0.00   -0.0309601   -0.3618171   -0.4168630
 H    0.6765914    2.7553855   10.1977240  0.00   -0.2151605    0.5138955   -0.1384002
 H    0.8441427    4.2910806    9.1588952  0.00   -0.2254575   -0.3920086    0.4413709
 H   -0.6948291    4.0139483   10.1690251  0.00    0.5049377   -0.1902266   -0.1589927
 H    2.8299714    3.2830243   11.3148863  0.00   -0.3843530    0.1030901    0.3946172
 H    1.4003028    2.6962708   12.3528488  0.00    0.3587492    0.3880711   -0.0967533
 H    2.4662875    4.1022780   12.9464976  0.00   -0.1453760   -0.2954071   -0.3979085
 H   -0.2649904    5.9144385    9.4418861  0.00    0.2223706    0.7080538   -0.0404424
 H    0.4433177    7.2374556    8.3402855  0.00   -0.2026082   -0.2000254    0.6253880
 H   -0.2588000    7.6890777   10.0042167  0.00    0.2260398   -0.3664351   -0.3132057
 H   -0.4553596    4.1350404   12.8274079  0.00    0.1292450    0.4758333   -0.2049032
 H   -0.8000006    5.6410434   11.7887666  0.00    0.3290945   -0.2353712    0.3606531
 H    0.4881533    5.7108769   13.1309223  0.00   -0.2771505   -0.3152528   -0.3415716
 H    1.2811091    9.4483090   10.3937292  0.00    0.3115201    0.3326620   -0.3621821
 H    1.5035396   10.4553877    8.8439178  0.00    0.2257397   -0.1465392    0.4885528
 H    2.7871764   10.5235066   10.1904820  0.00   -0.5525716   -0.2577491   -0.1744763
 H    2.4720347    7.4230862    7.2267577  0.00   -0.0575221    0.5402164    0.0433452
 H    2.8907486    9.2002135    6.8633078  0.00   -0.4261343   -0.3425301    0.2496355
 H    1.1943714    8.7520868    7.4854700  0.00    0.5485212   -0.1529793   -0.1691097
 H    4.5287531    9.3861865    7.8780376  0.00    0.0693501   -0.0918717    0.6040219
 H    4.8905230    8.1317741    9.2051285  0.00   -0.1994820    0.4913985   -0.2032718
 H    4.4828913    9.8876488    9.6702515  0.00    0.1088619   -0.4674630   -0.3937365
67
 Energy =   -2155.0525673610
 N    2.7312737    7.4631260    9.8017474  0.00   -0.1042043    0.0620260    0.0339638
 N    1.9469017    5.7139588   10.9206213  0.00   -0.1089416    0.0100501    0.0231520
 C    1.6740748    6.6898185   10.0498504  0.00   -0.0340560   -0.0582044   -0.0101390
 C    1.0868006    4.6047753   11.3260089  0.00    0.0709016    0.0497790    0.0263947
 C    0.4321679    3.8648024   10.1294982  0.00   -0.0742850   -0.0665020   -0.1228856
 C    2.0075743    3.6037929   12.0337105  0.00    0.1077027   -0.0870326    0.1213604
 C    2.7895259    8.6808470    8.9972363  0.00    0.0939560   -0.1125147    0.0015919
 C    0.3091600    6.8945932    9.4167340  0.00   -0.0968341   -0.0320191   -0.0549064
 C    0.0061273    5.0539939   12.3361640  0.00   -0.0513884    0.0644059    0.0317195
 C    2.0358153    9.8587691    9.6517247  0.00   -0.1764637    0.1371870    0.0926639
 C    2.2997318    8.5005636    7.5432142  0.00   -0.1496381   -0.1095400   -0.1540295
 C    4.2775508    9.0481824    8.9322990  0.00    0.3700934    0.0643138   -0.0372993
 N    5.0792396    7.4626110   12.7285260  0.00    0.4619137   -0.1172523    0.2362090
 N    5.8478352    5.7084517   11.6038727  0.00   -0.3782809   -0.3660599   -0.0022652
 C    6.1420388    6.6916257   12.4508919  0.00    0.3225973    0.2721685   -0.9891244
 C    6.7190071    4.6054123   11.1969808  0.00   -0.1267233    0.0411623   -0.0594296
 C    7.3747281    3.8663885   12.3954777  0.00    0.1036267    0.0081278    0.2026840
 C    5.7974335    3.6009908   10.4863205  0.00   -0.1304366   -0.1962553   -0.2252506
 C    5.0162211    8.6834603   13.5242498  0.00   -0.0422269   -0.0311828   -0.0302182
 C    7.8016319    5.0530931   10.1854346  0.00    0.0805126    0.0134941   -0.0950511
 C    5.7677905    9.8564179   12.8712938  0.00    0.0931477    0.0755474   -0.0943764
 C    5.5056251    8.5004750   14.9798787  0.00    0.1359992   -0.0833105    0.1623374
 C    3.5320208    9.0486715   13.5882505  0.00   -0.2450198    0.0820698   -0.0545889
Mn    3.9029878    6.4511801   11.2616412  0.00   -0.0154816   -0.0218453    0.0399955
 C    7.6571090    6.9413256   12.4923428  0.00   -0.0308092    0.3386433    0.5403073
 H    7.9843530    7.2576299   11.4461052  0.00   -0.2235258   -0.0130335    0.6889521
 H    8.1879832    5.9766206   12.7571131  0.00   -0.1692478    0.5867171   -0.0713576
 H    7.9136583    7.7384676   13.2244088  0.00    0.1013695   -0.1428558   -0.0950100
 H    8.4972665    3.9120727   12.2928894  0.00   -0.3481181   -0.1201951    0.1852572
 H    7.0386614    2.7876644   12.3941673  0.00    0.2491800    0.4170274    0.1611499
 H    7.0557140    4.3609540   13.3550216  0.00    0.1556302   -0.3113066   -0.2365901
 H    6.0724053    2.5550800   10.8038330  0.00   -0.2104055    0.2954693   -0.3073173
 H    5.9209969    3.7091815    9.3727554  0.00   -0.1925551   -0.1338974    0.3026866
 H    4.7290638    3.8190731   10.7773649  0.00    0.3847195   -0.1929981   -0.1420364
 H    7.2966919    5.4444267    9.2534861  0.00    0.2510850   -0.0974107    0.3041699
 H    8.4560295    4.1716866    9.9218043  0.00   -0.1983581    0.3261627    0.0098435
 H    8.4290835    5.8653365   10.6454730  0.00   -0.0960501   -0.4606204   -0.4142018
 H    5.4850801    9.9154679   11.7807127  0.00    0.1417335    0.0506996    0.3600652
 H    6.8790158    9.6903461   12.9700470  0.00   -0.3507434    0.1650484   -0.1127242
 H    5.4797380   10.8184764   13.3917298  0.00    0.1854934   -0.2956164   -0.2225001
 H    6.4178208    9.1418784   15.1507469  0.00   -0.2835575   -0.2784975    0.0977520
 H    5.7596871    7.4173556   15.1521266  0.00   -0.0717579    0.3771466    0.0661070
 H    4.6827780    8.8162328   15.6882370  0.00    0.4297452   -0.1595187   -0.1368655
 H    2.9432279    8.1364463   13.9003977  0.00    0.1368955    0.3616876   -0.0928725
 H    3.1918588    9.3935636   12.5707072  0.00   -0.0227261   -0.1298622    0.3370565
 H    3.3843532    9.8742137   14.3431600  0.00   -0.0590703   -0.2475598   -0.3164020
 H    0.6730727    2.7637913   10.1954605  0.00   -0.1836067    0.3698210   -0.1311981
 H    0.8404557    4.2846705    9.1661136  0.00   -0.1735855   -0.3263602    0.2926302
 H   -0.6865708    4.0108385   10.1664246  0.00    0.3598641   -0.1671753   -0.1578284
 H    2.8236855    3.2847117   11.3213402  0.00   -0.2732850    0.0569123    0.3127727
 H    1.4061701    2.7026191   12.3512665  0.00    0.2851204    0.2707567   -0.0516467
 H    2.4639100    4.0974483   12.9399899  0.00   -0.0776430   -0.2381250   -0.2692515
 H   -0.2613532    5.9260197    9.4412242  0.00    0.1124213    0.5216283   -0.0417323
 H    0.4400045    7.2341852    8.3505130  0.00   -0.1848705   -0.1492660    0.4507644
 H   -0.2551029    7.6830860    9.9990936  0.00    0.1607243   -0.2849081   -0.2542775
 H   -0.4532458    4.1428242   12.8240566  0.00    0.0808826    0.3804696   -0.1517785
 H   -0.7946182    5.6371955   11.7946646  0.00    0.2252060   -0.1568442    0.2901097
 H    0.4836206    5.7057227   13.1253356  0.00   -0.2242877   -0.2282722   -0.2386010
 H    1.2862043    9.4537508   10.3878050  0.00    0.1824482    0.2721959   -0.2384713
 H    1.5072320   10.4529921    8.8519070  0.00    0.1432456   -0.0637230    0.3789001
 H    2.7781396   10.5192923   10.1876276  0.00   -0.4569390   -0.1656303   -0.1011294
 H    2.4710945    7.4319221    7.2274661  0.00   -0.0492517    0.3796409   -0.0153301
 H    2.8837798    9.1946122    6.8673898  0.00   -0.3640106   -0.2734812    0.1716976
 H    1.2033428    8.7495857    7.4827035  0.00    0.3650313   -0.1221685   -0.1755314
 H    4.5298878    9.3846848    7.8879156  0.00    0.1199870   -0.0378747    0.4296605
 H    4.8872609    8.1398118    9.2018036  0.00   -0.0826722    0.3591177   -0.1625638
 H    4.4846721    9.8800046    9.6638113  0.00    0.1486874   -0.3365381   -0.2833963
67
 Energy =   -2155.0791913910
 N    2.7273423    7.4660956    9.8041429  0.00   -0.1053694    0.0007494    0.0501448
 N    1.9424617    5.7133351   10.9232482  0.00   -0.0678703    0.1065282   -0.0556555
 C    1.6685832    6.6881987   10.0468499  0.00    0.1130395   -0.0628427    0.0808797
 C    1.0889510    4.6052171   11.3272983  0.00   -0.0039140   -0.0115904    0.0121165
 C    0.4304251    3.8635273   10.1273910  0.00    0.0435025    0.0519418    0.1160520
 C    2.0103716    3.6025767   12.0375145  0.00   -0.0764401    0.0763118   -0.0263178
 C    2.7940628    8.6784500    8.9962127  0.00    0.0220424   -0.0112790   -0.0040607
 C    0.3090043    6.8935640    9.4169641  0.00    0.0886519   -0.0015182    0.0542855
 C    0.0062917    5.0557294   12.3354799  0.00    0.0959798   -0.0382727   -0.1023681
 C    2.0306604    9.8614175    9.6535850  0.00    0.0340635   -0.0991781   -0.0726232
 C    2.2951403    8.4960337    7.5397944  0.00    0.0124524   -0.0189841    0.1284997
 C    4.2899634    9.0495712    8.9309729  0.00   -0.0561839   -0.0236115   -0.0110089
 N    5.1043475    7.4527465   12.7372185  0.00    0.1058170    0.1332143    0.1373001
 N    5.8295443    5.6864002   11.6007803  0.00   -0.1308697    0.0822642    0.1105622
 C    6.1565476    6.7125956   12.4062585  0.00    0.1531071   -0.1751052   -0.6244900
 C    6.7127956    4.6044142   11.1930439  0.00   -0.0438741   -0.0862932   -0.0508014
 C    7.3774589    3.8687534   12.4009519  0.00   -0.0414484    0.0952475   -0.1062738
 C    5.7940562    3.5950451   10.4782214  0.00    0.0653428   -0.0021913   -0.0386005
 C    5.0157838    8.6839328   13.5248192  0.00    0.0614386   -0.0646626   -0.0348429
 C    7.8013666    5.0521187   10.1829219  0.00   -0.1422832   -0.1147547    0.0642851
 C    5.7695549    9.8573572   12.8690961  0.00   -0.0466980   -0.1152914    0.0463885
 C    5.5098873    8.4980327   14.9836241  0.00    0.0049644   -0.0054135   -0.1110358
 C    3.5244680    9.0507911   13.5855304  0.00    0.1278679   -0.0486924   -0.0490130
Mn    3.9017874    6.4505912   11.2643821  0.00   -0.0364050   -0.0332267    0.0504513
 C    7.6529066    6.9536027   12.5111630  0.00   -0.1714429    0.2248420    0.1759027
 H    7.9731557    7.2573524   11.4840361  0.00   -0.0389772    0.0855710    0.3747219
 H    8.1798064    6.0071189   12.7544558  0.00   -0.0602857    0.2807058    0.0287639
 H    7.9198294    7.7358274   13.2244281  0.00    0.0830635    0.0885001    0.1307478
 H    8.4813262    3.9057770   12.3029087  0.00   -0.0686500   -0.0747678    0.1383853
 H    7.0514411    2.8078595   12.4030350  0.00    0.1379412    0.1308226    0.1361472
 H    7.0633828    4.3456453   13.3454508  0.00    0.0571826   -0.1291563    0.0248349
 H    6.0616900    2.5679946   10.7878970  0.00   -0.1096788   -0.0006841   -0.2023068
 H    5.9107710    3.7020110    9.3854774  0.00   -0.1434934   -0.0912064   -0.0134297
 H    4.7470412    3.8087953   10.7700392  0.00    0.0907795   -0.1323190   -0.0682913
 H    7.3094638    5.4400795    9.2677251  0.00    0.1007632   -0.0000740    0.0505596
 H    8.4468460    4.1872851    9.9216956  0.00   -0.0558820    0.0941742   -0.0467618
 H    8.4261521    5.8435201   10.6246985  0.00    0.0817686   -0.1576110   -0.2075527
 H    5.4922391    9.9185359   11.7972536  0.00    0.0591076    0.0542295    0.0808843
 H    6.8630217    9.6989302   12.9640491  0.00   -0.0774685    0.1022316   -0.0790854
 H    5.4894004   10.8044637   13.3804997  0.00    0.1019627   -0.0651787   -0.0914579
 H    6.4049529    9.1283085   15.1566196  0.00   -0.0411782   -0.1109212    0.1170861
 H    5.7567519    7.4343757   15.1563979  0.00   -0.0022956    0.0823523    0.0882422
 H    4.7045546    8.8081366   15.6825086  0.00    0.1961667   -0.0707544    0.0352013
 H    2.9489345    8.1541880   13.8959853  0.00   -0.0188335    0.1202612   -0.0164110
 H    3.1893062    9.3876357   12.5861014  0.00   -0.1014653   -0.0386534    0.0599058
 H    3.3805430    9.8629658   14.3278451  0.00   -0.0810700   -0.0488524   -0.1295226
 H    0.6636450    2.7811504   10.1884120  0.00   -0.1047602    0.0809244   -0.0883112
 H    0.8319908    4.2681096    9.1791393  0.00   -0.0555801   -0.1789596    0.0347659
 H   -0.6697818    4.0021430   10.1577919  0.00    0.0809028   -0.1036691   -0.1278302
 H    2.8109556    3.2868997   11.3368312  0.00   -0.0612663   -0.0151395    0.1247387
 H    1.4203116    2.7150902   12.3493514  0.00    0.1262725    0.0587057    0.0243125
 H    2.4610291    4.0855589   12.9278377  0.00    0.0329164   -0.0995814   -0.0376363
 H   -0.2574211    5.9508434    9.4389077  0.00   -0.0590950    0.1745401   -0.0216630
 H    0.4302271    7.2270338    8.3716835  0.00   -0.1211868   -0.0398799    0.1199168
 H   -0.2476144    7.6691218    9.9863429  0.00    0.0329325   -0.0808396   -0.0931972
 H   -0.4497921    4.1617590   12.8168117  0.00   -0.0144127    0.1555311   -0.0438669
 H   -0.7843774    5.6301952   11.8091404  0.00    0.0415412   -0.0123704    0.1306850
 H    0.4723948    5.6949775   13.1143411  0.00   -0.0890466   -0.0635691   -0.0465555
 H    1.2935884    9.4674551   10.3772369  0.00   -0.0177548    0.1323286   -0.0492409
 H    1.5134130   10.4511841    8.8704547  0.00    0.0092008    0.0662766    0.1552006
 H    2.7550239   10.5120852   10.1835678  0.00   -0.2289888   -0.0023360    0.0350013
 H    2.4685628    7.4494823    7.2254305  0.00   -0.0097323    0.0774454   -0.0891534
 H    2.8650799    9.1810189    6.8752191  0.00   -0.1924475   -0.0970706    0.0093242
 H    1.2196349    8.7435145    7.4729428  0.00    0.0648356   -0.0686598   -0.1496970
 H    4.5374991    9.3837080    7.9079331  0.00    0.1730384    0.0482161    0.1176712
 H    4.8851022    8.1568227    9.1937128  0.00    0.0922107    0.0870476   -0.0829478
 H    4.4936376    9.8642124    9.6505076  0.00    0.1831783   -0.1010968   -0.0692191
67
 Energy =   -2155.0864075900
 N    2.7195166    7.4670259    9.8080876  0.00    0.1505296    0.0826279    0.0324989
 N    1.9368622    5.7198933   10.9205526  0.00    0.0495286   -0.1952646    0.1948144
 C    1.6739685    6.6837776   10.0509863  0.00   -0.1709936    0.1237667   -0.1378049
 C    1.0892728    4.6045115   11.3284520  0.00    0.0003247    0.0742213   -0.0564103
 C    0.4327823    3.8665702   10.1343695  0.00    0.0416462    0.0351271    0.0739169
 C    2.0061985    3.6072473   12.0368530  0.00   -0.0291838    0.0920492   -0.0257869
 C    2.7968156    8.6771841    8.9955891  0.00   -0.0586566   -0.0328130    0.0422556
 C    0.3148532    6.8931946    9.4206433  0.00    0.1542591   -0.0302088    0.0981581
 C    0.0126035    5.0537364   12.3286285  0.00    0.0610694   -0.0000181   -0.0591588
 C    2.0314869    9.8556710    9.6493614  0.00    0.0351480   -0.0864692   -0.0426065
 C    2.2947164    8.4935246    7.5471862  0.00    0.0197600   -0.0310486    0.0964957
 C    4.2897718    9.0483897    8.9298992  0.00   -0.0780744   -0.0568225    0.0064596
 N    5.1186822    7.4581081   12.7484062  0.00    0.1906057   -0.3479596   -0.3399407
 N    5.8157799    5.6848928   11.6067593  0.00    0.0519394   -0.4300281   -0.3627791
 C    6.1705571    6.7080501   12.3533655  0.00   -0.2791243    0.6590914    0.4606053
 C    6.7081540    4.5984610   11.1885802  0.00   -0.0760594    0.0194387    0.0139544
 C    7.3755052    3.8756376   12.3955665  0.00   -0.0684736    0.0858697   -0.0632650
 C    5.7973790    3.5933337   10.4735057  0.00    0.0258830    0.0409797   -0.0037353
 C    5.0196602    8.6800572   13.5228681  0.00    0.1122631    0.0053069    0.0112147
 C    7.7919952    5.0444273   10.1863865  0.00   -0.1127672   -0.0165083    0.0553026
 C    5.7669580    9.8501434   12.8715245  0.00   -0.0339801   -0.0516109    0.0347378
 C    5.5113475    8.4970532   14.9774319  0.00    0.0004066    0.0042601   -0.0757141
 C    3.5306157    9.0482219   13.5815900  0.00    0.1249495   -0.0392429   -0.0336258
Mn    3.8990878    6.4483264   11.2684523  0.00   -0.0759941    0.0465349    0.1022614
 C    7.6405851    6.9713719   12.5275736  0.00   -0.0649516   -0.0425162   -0.0396954
 H    7.9673346    7.2627512   11.5194152  0.00    0.1259569    0.1865830    0.0796912
 H    8.1735408    6.0341749   12.7555434  0.00   -0.0051939    0.1380392    0.0775147
 H    7.9270249    7.7409191   13.2330138  0.00   -0.0266040    0.2059980    0.2422046
 H    8.4722733    3.8991212   12.3147594  0.00    0.0672738   -0.0192864    0.0763435
 H    7.0640650    2.8221927   12.4144028  0.00    0.0484585   -0.0466283    0.0882527
 H    7.0693107    4.3328631   13.3442972  0.00    0.0049217   -0.0241452    0.0946004
 H    6.0514920    2.5717081   10.7702146  0.00   -0.0249036   -0.1673034   -0.1196751
 H    5.8985417    3.6940356    9.3882879  0.00   -0.0977866   -0.0453557   -0.1623492
 H    4.7581256    3.7972648   10.7634880  0.00   -0.0635451   -0.0871654   -0.0189666
 H    7.3197098    5.4388089    9.2751419  0.00   -0.0049815    0.0340080   -0.0732619
 H    8.4405839    4.1979065    9.9186489  0.00    0.0061298   -0.0796915   -0.0692337
 H    8.4305918    5.8270306   10.6052643  0.00    0.1156284   -0.0328116   -0.0717124
 H    5.4981493    9.9229410   11.8072632  0.00   -0.0026184    0.0298069   -0.0571147
 H    6.8533960    9.7080307   12.9571951  0.00    0.0802590    0.0408948   -0.0471041
 H    5.4988065   10.7961754   13.3713100  0.00    0.0382079    0.0480635    0.0003762
 H    6.3985613    9.1172138   15.1658849  0.00    0.0925774   -0.0101834    0.0960425
 H    5.7557660    7.4446130   15.1633458  0.00    0.0285763   -0.0741325    0.0673689
 H    4.7235733    8.8012116   15.6831006  0.00    0.0420600   -0.0099037    0.1013430
 H    2.9493778    8.1671345   13.8936321  0.00   -0.0669926   -0.0229326    0.0229688
 H    3.1820041    9.3834383   12.5944313  0.00   -0.0914349   -0.0120531   -0.0706814
 H    3.3741957    9.8565622   14.3150414  0.00   -0.0505962    0.0374992   -0.0391700
 H    0.6541419    2.7914324   10.1806527  0.00   -0.0421517   -0.0824824   -0.0304279
 H    0.8259358    4.2517520    9.1851548  0.00    0.0180049   -0.0774799   -0.0746730
 H   -0.6596786    3.9929278   10.1470261  0.00   -0.0663411   -0.0436142   -0.0824710
 H    2.8033030    3.2865577   11.3493952  0.00    0.0434338   -0.0418635    0.0026426
 H    1.4325748    2.7225028   12.3503648  0.00    0.0046171   -0.0579003    0.0586653
 H    2.4623224    4.0756713   12.9218815  0.00    0.0670817   -0.0084500    0.0665116
 H   -0.2601029    5.9693148    9.4368212  0.00   -0.1323395   -0.0281013    0.0024075
 H    0.4195591    7.2223797    8.3855680  0.00   -0.0512987    0.0289372   -0.0802581
 H   -0.2433077    7.6598244    9.9765935  0.00   -0.0341929    0.0650460    0.0327395
 H   -0.4497113    4.1773244   12.8118705  0.00   -0.0595965   -0.0082625    0.0128183
 H   -0.7787264    5.6273699   11.8217857  0.00   -0.0413918    0.0604418    0.0165331
 H    0.4633709    5.6877619   13.1081408  0.00    0.0061715    0.0167726    0.0437188
 H    1.2945708    9.4799895   10.3710116  0.00   -0.0977864    0.0335217    0.0178385
 H    1.5157953   10.4549478    8.8858563  0.00   -0.0502348    0.1105918    0.0047663
 H    2.7335195   10.5098482   10.1846370  0.00   -0.0720411    0.0629962    0.0965163
 H    2.4671871    7.4595856    7.2190693  0.00    0.0181270   -0.0610270   -0.0901407
 H    2.8472104    9.1707839    6.8781043  0.00   -0.0629263    0.0237506   -0.0656796
 H    1.2285287    8.7373314    7.4604316  0.00   -0.0802671   -0.0445372   -0.0910500
 H    4.5508903    9.3865423    7.9213251  0.00    0.1522331    0.0797380   -0.0432993
 H    4.8904444    8.1673991    9.1860096  0.00    0.1338298   -0.0439621   -0.0456110
 H    4.5080750    9.8531145    9.6421683  0.00    0.1588336    0.0118261    0.0508028
67
 Energy =   -2155.0893617380
 N    2.7220892    7.4707684    9.8104089  0.00    0.0135570   -0.0585904    0.0935459
 N    1.9363061    5.7149835   10.9266286  0.00    0.0717576    0.1409351   -0.0570830
 C    1.6710876    6.6864799   10.0482791  0.00    0.0760103   -0.0461649    0.0884499
 C    1.0901827    4.6083946   11.3266053  0.00   -0.0283256   -0.0429824    0.0066058
 C    0.4341980    3.8679251   10.1375650  0.00    0.0111768    0.0014671    0.0132950
 C    2.0049928    3.6108679   12.0368442  0.00   -0.0267480    0.0314179   -0.0123720
 C    2.7955307    8.6736198    8.9976787  0.00   -0.0006384    0.0594607   -0.0022932
 C    0.3205342    6.8915322    9.4242419  0.00    0.0078834    0.0264263    0.0104601
 C    0.0157810    5.0538638   12.3250759  0.00    0.0010779    0.0066202   -0.0095141
 C    2.0311461    9.8525060    9.6476929  0.00    0.0139965   -0.0311294   -0.0183932
 C    2.2937483    8.4908548    7.5512998  0.00    0.0167381   -0.0244467    0.0274066
 C    4.2899769    9.0467082    8.9294749  0.00   -0.0489147   -0.0342928   -0.0003617
 N    5.1303730    7.4482051   12.7404315  0.00   -0.2555313    0.1836034   -0.0560891
 N    5.8126114    5.6690844   11.5959170  0.00    0.0421002    0.3228332    0.0500394
 C    6.1652142    6.7289410   12.3503971  0.00    0.0351625   -0.3252628   -0.0023922
 C    6.7033668    4.5988389   11.1880883  0.00    0.0175701   -0.0770772   -0.0291278
 C    7.3734267    3.8804574   12.3937137  0.00   -0.0224507    0.0090909   -0.0256942
 C    5.7978461    3.5922214   10.4699069  0.00    0.0227607   -0.0265384   -0.0180511
 C    5.0246227    8.6777757   13.5214720  0.00    0.0535726   -0.0484662   -0.0285886
 C    7.7865229    5.0419602   10.1885898  0.00   -0.0350968   -0.0386131   -0.0220898
 C    5.7662824    9.8470964   12.8723763  0.00    0.0121994   -0.0273926   -0.0064225
 C    5.5133011    8.4959207   14.9746273  0.00    0.0068902   -0.0136856   -0.0360991
 C    3.5351964    9.0468450   13.5788271  0.00    0.0795125   -0.0758509   -0.0395394
Mn    3.8953080    6.4491231   11.2736040  0.00   -0.0486199   -0.0262301    0.0650967
 C    7.6350770    6.9785765   12.5363861  0.00   -0.0609463    0.1049466   -0.0646870
 H    7.9703337    7.2719756   11.5333035  0.00    0.1328751    0.1881048    0.0401340
 H    8.1709370    6.0487457   12.7585383  0.00    0.0018734    0.0319632    0.1036403
 H    7.9279037    7.7485161   13.2431566  0.00   -0.0506230    0.1751049    0.2172068
 H    8.4709281    3.8961393   12.3216331  0.00    0.0712357    0.0065985    0.0497517
 H    7.0703407    2.8258085   12.4215519  0.00    0.0209290   -0.0683099    0.0625700
 H    7.0716901    4.3271936   13.3464207  0.00   -0.0196116    0.0219108    0.1101293
 H    6.0469652    2.5673551   10.7594125  0.00    0.0003791   -0.1651035   -0.1015540
 H    5.8905862    3.6896396    9.3841138  0.00   -0.0777146   -0.0223861   -0.1679980
 H    4.7602357    3.7900033   10.7605101  0.00   -0.1015728   -0.0701144   -0.0029239
 H    7.3230492    5.4394351    9.2753890  0.00   -0.0360333    0.0354994   -0.0809810
 H    8.4381876    4.1988963    9.9151158  0.00   -0.0095080   -0.0932150   -0.0601164
 H    8.4357767    5.8191527   10.5954827  0.00    0.1169974    0.0150944   -0.0145188
 H    5.5001138    9.9254186   11.8093575  0.00   -0.0185319    0.0213784   -0.0817934
 H    6.8523254    9.7127425   12.9530582  0.00    0.1093672    0.0224791   -0.0385265
 H    5.5034824   10.7947235   13.3681028  0.00    0.0107653    0.0569714    0.0278115
 H    6.3992680    9.1126530   15.1724992  0.00    0.1147317    0.0043410    0.0708523
 H    5.7561981    7.4463192   15.1679913  0.00    0.0387839   -0.1097042    0.0575728
 H    4.7318902    8.7984149   15.6867575  0.00    0.0081881    0.0008285    0.0827098
 H    2.9474828    8.1710322   13.8935830  0.00   -0.0543064   -0.0385695    0.0239436
 H    3.1765179    9.3811445   12.5953785  0.00   -0.0666624   -0.0136167   -0.0891172
 H    3.3703773    9.8551566   14.3086121  0.00   -0.0220176    0.0507525   -0.0193693
 H    0.6491988    2.7924257   10.1769312  0.00   -0.0195805   -0.1012995    0.0006890
 H    0.8243822    4.2429415    9.1851963  0.00    0.0393791   -0.0440736   -0.0960500
 H   -0.6580613    3.9880801   10.1402802  0.00   -0.0830500   -0.0197234   -0.0598113
 H    2.8017971    3.2851268   11.3540656  0.00    0.0622008   -0.0370837   -0.0265516
 H    1.4372023    2.7234227   12.3527075  0.00   -0.0176998   -0.0534323    0.0542916
 H    2.4649210    4.0717985   12.9216918  0.00    0.0692425    0.0240395    0.0848880
 H   -0.2654312    5.9754850    9.4362978  0.00   -0.1131356   -0.0621680    0.0198362
 H    0.4139931    7.2217123    8.3880576  0.00   -0.0291624    0.0300079   -0.0789953
 H   -0.2428356    7.6589682    9.9744469  0.00   -0.0188679    0.0691577    0.0460755
 H   -0.4517447    4.1826009   12.8104249  0.00   -0.0530788   -0.0367620    0.0099773
 H   -0.7777999    5.6283240   11.8269748  0.00   -0.0575881    0.0798237   -0.0179088
 H    0.4604061    5.6854908   13.1071568  0.00    0.0362733    0.0366677    0.0625250
 H    1.2919653    9.4857624   10.3687450  0.00   -0.1203471   -0.0018825    0.0330753
 H    1.5151776   10.4599697    8.8917628  0.00   -0.0482762    0.0947289   -0.0279503
 H    2.7231010   10.5109851   10.1883372  0.00   -0.0270697    0.0580494    0.0981914
 H    2.4674665    7.4615420    7.2138847  0.00    0.0247903   -0.0906211   -0.0775718
 H    2.8385865    9.1680461    6.8769165  0.00   -0.0324916    0.0380513   -0.0513768
 H    1.2295755    8.7333193    7.4528559  0.00   -0.1086621   -0.0438457   -0.0590055
 H    4.5608876    9.3902518    7.9251829  0.00    0.1167502    0.0712494   -0.0571023
 H    4.8966258    8.1699447    9.1814044  0.00    0.1257292   -0.0747934   -0.0387615
 H    4.5187556    9.8490561    9.6407479  0.00    0.1268394    0.0194687    0.0684617
67
 Energy =   -2155.0920822540
 N    2.7246333    7.4705088    9.8154675  0.00   -0.0193977   -0.0174652    0.0452295
 N    1.9393196    5.7176458   10.9279640  0.00    0.0051771    0.0468493   -0.0239139
 C    1.6722238    6.6862468   10.0502135  0.00    0.0954390   -0.0049789    0.0603792
 C    1.0897981    4.6091781   11.3257873  0.00    0.0015499   -0.0200932    0.0177570
 C    0.4348107    3.8680196   10.1384177  0.00   -0.0221410   -0.0468156   -0.0486972
 C    2.0042119    3.6132446   12.0369946  0.00    0.0193682   -0.0296444    0.0273905
 C    2.7948043    8.6736667    8.9989408  0.00    0.0284671    0.0257751   -0.0009760