122
 Energy =   -4153.1921703110
Mn    4.0266551   14.9271635   18.3085756  0.00   -0.0122934    0.0020540    0.0286790
Mn    2.6673737   17.6852084   16.9981832  0.00    0.0655301   -0.0259551   -0.0021027
 N    2.1571906   18.7069640   15.1503025  0.00   -0.0955823    0.1537490   -0.2306248
 N    4.7972096   17.4796658   17.0950516  0.00   -0.1307631    0.0239325    0.1588679
 N    5.6471126   13.8724417   19.3364353  0.00    0.1985207   -0.0065677    0.1323070
 N    4.5888321   15.3301066   16.2809164  0.00    0.1187330    0.0491551    0.0715706
 N    3.7404377   12.7992508   18.7650853  0.00   -0.0341910   -0.2159030    0.0929414
 N    1.7319877   19.6619926   17.1491857  0.00   -0.1889275    0.2742439    0.1222332
 N    2.5977804   16.0492080   19.4502392  0.00   -0.0851640   -0.0712522    0.0672055
 N    1.2717870   16.1818674   17.5723391  0.00   -0.0460058   -0.1744722   -0.0473715
 C    4.9389104   12.7583409   19.3144053  0.00    0.2081349    0.0272812   -0.0537072
 C    5.1836937   16.5041821   16.2724487  0.00   -2.6279225   -0.4272132    2.4544073
 C    2.1758963   18.7230499   13.6790227  0.00    0.1009350   -0.1128652    0.2341839
 C    1.4097668   15.9810909   18.8637603  0.00    1.6211960    0.4793674   -1.1009031
 C    4.8946603   14.3135144   15.2370674  0.00    0.0251250    0.6193398    0.2323391
 C    1.6958837   19.7334857   15.8378804  0.00   -0.0847573    0.7127111   -0.5917521
 C    3.5660522   13.6593525   14.8563788  0.00   -0.3829063   -0.2622728   -0.3198909
 C    2.8911382   11.5973724   18.7180523  0.00    0.0614725    0.3287314   -0.0085347
 C    5.8222020   13.2528348   15.8262953  0.00    0.4588921   -0.2973325    0.1794773
 C    7.0081037   13.8625121   19.9189459  0.00   -0.2563578    0.1098083   -0.2070078
 C   -0.0184040   15.8877527   16.9049519  0.00    0.1455286    0.0402212    0.0662673
 C    2.6037139   20.0728794   13.1036196  0.00    0.1161650    0.3773953   -0.0706275
 C    5.6870382   18.6680400   17.2227252  0.00   -0.1733520   -0.2987851   -0.1518387
 C    1.2017915   20.7866188   17.9527490  0.00    0.1602464   -0.2022661   -0.2368188
 C    0.7995182   18.3520802   13.1178457  0.00   -0.3364493   -0.1087865   -0.1422979
 C    2.8189301   10.8842287   20.0683119  0.00    0.0289101   -0.1360443    0.4430538
 C   -0.7652244   17.1974666   16.6370320  0.00   -0.3000709    0.5389352   -0.0406781
 C    3.2031011   17.6719028   13.2657952  0.00    0.1911576   -0.2438687   -0.2071614
 C    0.3157845   15.2153204   15.5767060  0.00    0.1013563   -0.3088195   -0.5367878
 C    6.9713962   13.5052452   21.4044321  0.00   -0.0344714   -0.0381395    0.3713460
 C    3.3891525   10.6175197   17.6531770  0.00    0.1628747   -0.2962465   -0.3167108
 C   -0.2725402   21.0541222   17.6264448  0.00   -0.3121973    0.0625840   -0.1737895
 C    2.6187992   16.0936926   20.9351742  0.00    0.0649787    0.0030969   -0.2972513
 C    7.1071635   18.2682744   17.6163736  0.00    0.5685231   -0.4065386    0.0836032
 C    7.5778232   15.2657628   19.7361843  0.00    0.1238634    0.3475057    0.0222623
 C   -0.9282456   14.9458311   17.7029176  0.00   -0.0770029   -0.1819965    0.3267563
 C    1.3164394   20.3793067   19.4130348  0.00    0.0256490   -0.0935041    0.6126019
 C    5.1159107   19.5287374   18.3272969  0.00   -0.3527541    0.4795338    0.4862929
 C    7.9227726   12.8792834   19.1840403  0.00    0.1904389   -0.2876275   -0.1875917
 C    1.4934396   12.0892846   18.3540358  0.00   -0.3994365    0.0083580   -0.1337206
 C    4.0589376   16.3758917   21.3433412  0.00    0.6771864    0.0091658    0.1915017
 C    2.0244404   22.0629692   17.7090916  0.00    0.1512148    0.2507114   -0.1124562
 C    2.1581962   14.7529984   21.5268798  0.00   -0.2407086   -0.5100329    0.2074742
 C    5.7394343   19.4584359   15.9036104  0.00    0.0254009    0.3100662   -0.4063657
 C    1.7418434   17.2248723   21.4768927  0.00   -0.4596132    0.4660529    0.0949176
 H   -0.8774816   20.1024523   17.7936859  0.00    0.2285607    0.4964462   -0.1096610
 H   -0.3679655   21.3786667   16.5377924  0.00   -0.0905048   -0.1299825    0.5203082
 H   -0.6681719   21.8801061   18.3052860  0.00    0.1085960   -0.3759322   -0.3610327
 H    1.9992790   21.1108406   19.9591003  0.00   -0.3562447   -0.4360867   -0.0980575
 H    1.7531928   19.3285031   19.4812794  0.00   -0.2230221    0.5911435    0.0456888
 H    0.2828119   20.3931641   19.8936818  0.00    0.5626220   -0.0561612   -0.0654620
 H    2.0979584   22.2595515   16.5885784  0.00    0.0055305    0.0311595    0.5546750
 H    3.0709575   21.9287462   18.1408151  0.00   -0.4852571    0.1420888   -0.2640800
 H    1.5142031   22.9467194   18.2172675  0.00    0.3124406   -0.3477236   -0.2479178
 H    1.3284244   20.7242768   15.2828544  0.00    0.2414086   -0.9035104    0.5115600
 H    2.6231637   20.0118108   11.9654230  0.00    0.0073902    0.1143222    0.5414277
 H    3.6439580   20.3372398   13.4878137  0.00   -0.4971828   -0.0361587   -0.2016753
 H    1.8631093   20.8763627   13.4284560  0.00    0.4166645   -0.2895190   -0.2862145
 H    0.6165219   17.2367401   13.2666009  0.00   -0.0173921    0.5594559   -0.0847711
 H    0.7639282   18.5979306   12.0052406  0.00   -0.0798344   -0.1814158    0.4925071
 H   -0.0061076   18.9455181   13.6641036  0.00    0.3233395   -0.2954537   -0.3281993
 H    3.2709399   17.6333855   12.1284679  0.00    0.0364897   -0.0666701    0.5136581
 H    2.8835713   16.6519101   13.6621725  0.00    0.2032854    0.4720666   -0.1961247
 H    4.2218136   17.9455134   13.6981856  0.00   -0.4876732   -0.1955615   -0.2637310
 H   -1.8106988   17.1377819   17.0876095  0.00    0.4441316    0.1635045   -0.2613717
 H   -0.8451815   17.3661073   15.5124137  0.00   -0.0529948    0.1072745    0.6473099
 H   -0.1957751   18.0635481   17.1116155  0.00   -0.3764304   -0.3715362   -0.2830837
 H   -0.1890300   15.7822137   14.7261805  0.00    0.2991912   -0.4668576    0.3188312
 H   -0.0589554   14.1387669   15.5909127  0.00    0.2770455    0.4565767   -0.1579377
 H    1.4450265   15.2225758   15.4206320  0.00   -0.7001934    0.0139786   -0.0130962
 H   -0.3518391   14.0005681   17.9746388  0.00   -0.3825592    0.4226096   -0.1009014
 H   -1.8360509   14.6690077   17.0713659  0.00    0.4148765    0.1371534    0.3536362
 H   -1.2731981   15.4677194   18.6559337  0.00    0.0338511   -0.3514167   -0.4187417
 H    7.8009422   18.4001946   16.7214617  0.00   -0.1824115   -0.1776525    0.5338213
 H    7.1169487   17.1773828   17.9472196  0.00    0.1164014    0.6242025   -0.1030604
 H    7.4638558   18.9287833   18.4743350  0.00    0.0133640   -0.4155127   -0.4713345
 H    4.5156896   18.8772531   19.0448636  0.00    0.3142392    0.3809439   -0.2506828
 H    4.4349966   20.3238590   17.8759247  0.00    0.2432645   -0.4010028    0.4068736
 H    5.9665211   20.0339076   18.8937457  0.00   -0.5551404   -0.1175425   -0.2185558
 H    5.0949346   20.3942651   15.9954963  0.00    0.3153961   -0.4587830   -0.2470368
 H    5.3454144   18.8075244   15.0546923  0.00    0.2473997    0.4543525    0.3487030
 H    6.8167739   19.7591179   15.6833178  0.00   -0.5971937   -0.0121639   -0.0202710
 C    5.5424835   15.0808550   14.0695434  0.00    0.2228281   -0.1784069   -0.5390037
 H    3.5982404   12.5511893   15.1219675  0.00   -0.1885440    0.5516708   -0.2295604
 H    3.3920198   13.7766660   13.7358658  0.00   -0.0685629   -0.1426980    0.5306971
 H    2.7173510   14.1624913   15.4274803  0.00    0.4764741   -0.3780657   -0.3626593
 H    6.5403432   12.8860297   15.0204873  0.00   -0.3133115    0.0468418    0.4420921
 H    5.2020956   12.3766172   16.2101052  0.00    0.4790854    0.4386237   -0.0820209
 H    6.4165098   13.7041371   16.6881095  0.00   -0.2355950   -0.3159253   -0.4539460
 H    4.7294224   15.4581641   13.3651510  0.00    0.5105717   -0.1086195    0.3173208
 H    6.2450233   14.3857762   13.5012984  0.00   -0.3532039    0.4101749    0.1537646
 H    6.1325620   15.9666557   14.4779105  0.00   -0.1657929   -0.7286195   -0.6668351
 H    6.4619135   12.4944372   21.5396864  0.00    0.2701610    0.4795729    0.0522444
 H    6.3889587   14.3034559   21.9729612  0.00    0.2879827   -0.4346891   -0.1947099
 H    8.0359353   13.4513453   21.8087223  0.00   -0.5197402   -0.0054494   -0.0949684
 H    7.7912322   15.4483194   18.6313182  0.00   -0.0823090   -0.0366555    0.5575272
 H    8.5452286   15.3636038   20.3312921  0.00   -0.4211537    0.0390521   -0.3237464
 H    6.8227628   16.0340203   20.1093641  0.00    0.4271599   -0.3209738   -0.1969384
 H    7.7847105   13.0001797   18.0589083  0.00    0.1424300   -0.1102853    0.5480302
 H    7.6562771   11.8131356   19.4872042  0.00    0.2196486    0.4319345   -0.2273781
 H    9.0084777   13.0923313   19.4587297  0.00   -0.4699714   -0.2016858   -0.1504310
 H    2.4109492    9.8301176   19.9199863  0.00    0.1683180    0.5041692    0.1968075
 H    2.1297564   11.4635242   20.7676370  0.00    0.3876912   -0.3120270   -0.2305269
 H    3.8622378   10.8272385   20.5242290  0.00   -0.5850669   -0.0991710   -0.1163801
 H    2.9927986   10.9325829   16.6317868  0.00    0.2983278   -0.2227451    0.4317826
 H    3.0166150    9.5683482   17.8982364  0.00    0.2016191    0.4502472   -0.2682080
 H    4.5290191   10.6217276   17.6362736  0.00   -0.5554642   -0.1178594   -0.0391463
 H    0.7421926   11.2452626   18.5052113  0.00    0.2575330    0.4282695   -0.1315878
 H    1.4790933   12.4199148   17.2631292  0.00   -0.0793787   -0.0895973    0.5294226
 H    1.2147406   12.9702095   19.0217913  0.00    0.0873874   -0.4714848   -0.3375183
 H    4.6422778   16.7558139   20.4405829  0.00   -0.2136025   -0.1212698    0.5189494
 H    4.5391794   15.4169967   21.7299771  0.00   -0.0553663    0.5895377   -0.2406157
 H    4.0731667   17.1660647   22.1649393  0.00    0.1933215   -0.4556397   -0.3779233
 H    2.9930915   14.3130059   22.1663764  0.00   -0.5443763    0.0638896   -0.2848707
 H    1.9064194   14.0309504   20.6813892  0.00    0.1622000    0.2693790    0.5347988
 H    1.2332558   14.9200851   22.1719895  0.00    0.4597790   -0.2927401   -0.2797855
 H    0.9414081   16.7901482   22.1623980  0.00    0.3254228    0.4213138   -0.3095264
 H    1.2433632   17.7687350   20.6077954  0.00    0.1846201   -0.1747107    0.5788730
 H    2.3875058   17.9583608   22.0640161  0.00   -0.5281737   -0.2428974   -0.2884721
 H    5.4090230   11.8296300   19.7318352  0.00   -0.2243957    0.0890539   -0.0952071
 H    0.5614843   15.8622998   19.3920931  0.00   -1.6604662   -0.3996737    1.2815222
 H    5.8776103   16.7789689   15.6610115  0.00    2.4574185    0.6984858   -1.9936113
122
 Energy =   -4153.2313627250
Mn    4.0265368   14.9271834   18.3088521  0.00   -0.0127137   -0.0307898    0.0482299
Mn    2.6680054   17.6849584   16.9981630  0.00    0.0299706    0.0146769   -0.0130278
 N    2.1562696   18.7084456   15.1480801  0.00   -0.1063375    0.2016809   -0.1570394
 N    4.7959497   17.4798964   17.0965824  0.00   -0.3536300    0.2504009    0.4580061
 N    5.6490257   13.8723785   19.3377104  0.00    0.1424506    0.0012828    0.0974903
 N    4.5899763   15.3305802   16.2816062  0.00   -0.1729754   -0.2676145    0.2005932
 N    3.7401082   12.7971704   18.7659813  0.00    0.0210484   -0.1447834    0.0951807
 N    1.7301674   19.6646356   17.1503636  0.00   -0.1558865    0.2276677   -0.0765443
 N    2.5969600   16.0485217   19.4508870  0.00    0.1894508   -0.0436710    0.0751032
 N    1.2713438   16.1801864   17.5718829  0.00    0.0357043   -0.1003507   -0.2963932
 C    4.9409162   12.7586039   19.3138879  0.00    0.1464475    0.0273119   -0.0654711
 C    5.1583697   16.5000652   16.2961007  0.00   -0.7521932    0.1788774    0.8014764
 C    2.1768690   18.7219622   13.6812795  0.00    0.0768843   -0.0833701    0.1268812
 C    1.4253897   15.9857107   18.8531516  0.00    0.4858873    0.2683381   -0.3615578
 C    4.8949023   14.3194825   15.2393065  0.00    0.0468428    0.4635966    0.1505085
 C    1.6950672   19.7403539   15.8321780  0.00   -0.0158233    0.4852669   -0.3517084
 C    3.5623621   13.6568250   14.8532964  0.00   -0.2193100   -0.1512454   -0.2227534
 C    2.8917305   11.6005404   18.7179705  0.00    0.0291452    0.2073584   -0.0029171
 C    5.8266240   13.2499694   15.8280250  0.00    0.3089251   -0.1558649    0.1123928
 C    7.0056334   13.8635703   19.9169510  0.00   -0.1556019    0.0855926   -0.1377715
 C   -0.0170015   15.8881406   16.9055908  0.00    0.0792629    0.0241750    0.0275643
 C    2.6048335   20.0765160   13.1029389  0.00    0.0756686    0.2305309   -0.0316523
 C    5.6853680   18.6651606   17.2212617  0.00   -0.1095097   -0.2004877   -0.0931606
 C    1.2033362   20.7846700   17.9504668  0.00    0.1050873   -0.1305279   -0.1320039
 C    0.7962760   18.3510318   13.1164746  0.00   -0.2015458   -0.0688018   -0.0890682
 C    2.8192087   10.8829180   20.0725819  0.00    0.0192654   -0.0720372    0.2840795
 C   -0.7681159   17.2026604   16.6366403  0.00   -0.2029306    0.3617800   -0.0132187
 C    3.2049432   17.6695525   13.2637989  0.00    0.1136466   -0.1539118   -0.1439304
 C    0.3167612   15.2123446   15.5715336  0.00    0.0536829   -0.2139375   -0.3560976
 C    6.9710643   13.5048778   21.4080106  0.00   -0.0246889   -0.0140446    0.2187228
 C    3.3907219   10.6146650   17.6501255  0.00    0.1041406   -0.1843646   -0.1993991
 C   -0.2755482   21.0547256   17.6247701  0.00   -0.1807866    0.0400149   -0.1184971
 C    2.6194257   16.0937228   20.9323099  0.00    0.0409836    0.0068702   -0.1830888
 C    7.1126424   18.2643566   17.6171789  0.00    0.3716398   -0.2946096    0.0384760
 C    7.5790171   15.2691115   19.7363987  0.00    0.0753626    0.2167084    0.0178744
 C   -0.9289876   14.9440777   17.7060669  0.00   -0.0276920   -0.0968327    0.2191370
 C    1.3166871   20.3784061   19.4189381  0.00    0.0147805   -0.0490688    0.4023288
 C    5.1125118   19.5333585   18.3319828  0.00   -0.2416390    0.3094231    0.3189407
 C    7.9246078   12.8765115   19.1822326  0.00    0.1108016   -0.1816023   -0.1151402
 C    1.4895903   12.0893655   18.3527477  0.00   -0.2569204   -0.0053865   -0.0910470
 C    4.0654637   16.3759804   21.3451867  0.00    0.4605215    0.0022304    0.1173735
 C    2.0258981   22.0653855   17.7080077  0.00    0.0861304    0.1493181   -0.0770452
 C    2.1558770   14.7480839   21.5288795  0.00   -0.1637818   -0.3354964    0.1310503
 C    5.7396793   19.4614237   15.8996942  0.00    0.0099642    0.1959247   -0.2662857
 C    1.7374148   17.2293639   21.4778075  0.00   -0.3115775    0.3088808    0.0460558
 H   -0.8752786   20.1072368   17.7926293  0.00    0.1816309    0.4290147   -0.1013497
 H   -0.3688372   21.3774144   16.5428064  0.00   -0.1019015   -0.1036220    0.4300266
 H   -0.6671248   21.8764839   18.3018069  0.00    0.0814882   -0.3217729   -0.3192320
 H    1.9958467   21.1066386   19.9581552  0.00   -0.2978108   -0.3732385   -0.0475445
 H    1.7510441   19.3342000   19.4817197  0.00   -0.1866841    0.5007477    0.0626104
 H    0.2882343   20.3926234   19.8930510  0.00    0.4757699   -0.0547410   -0.0221574
 H    2.0980122   22.2598519   16.5939234  0.00    0.0142773    0.0496345    0.4664191
 H    3.0662819   21.9301156   18.1382701  0.00   -0.4087037    0.1356151   -0.2357593
 H    1.5172146   22.9433688   18.2148782  0.00    0.2780567   -0.2885686   -0.2154735
 H    1.3307511   20.7155702   15.2877840  0.00    0.1964237   -0.7613162    0.4250390
 H    2.6232350   20.0129122   11.9706404  0.00    0.0109622    0.1131375    0.4651025
 H    3.6391670   20.3368912   13.4858700  0.00   -0.4156592   -0.0098504   -0.1737840
 H    1.8671247   20.8735726   13.4256978  0.00    0.3589482   -0.2227160   -0.2584953
 H    0.6163542   17.2421313   13.2657842  0.00   -0.0366627    0.4717309   -0.0753547
 H    0.7631588   18.5961823   12.0099868  0.00   -0.0832173   -0.1644664    0.4132661
 H   -0.0029916   18.9426711   13.6609411  0.00    0.2614630   -0.2547998   -0.2896221
 H    3.2712914   17.6327428   12.1334178  0.00    0.0408532   -0.0707777    0.4228528
 H    2.8855302   16.6564591   13.6602826  0.00    0.1839269    0.3939902   -0.1731752
 H    4.2171141   17.9436287   13.6956440  0.00   -0.4127408   -0.1818653   -0.2364559
 H   -1.8064188   17.1393580   17.0850912  0.00    0.3590592    0.1626628   -0.2239718
 H   -0.8456921   17.3671413   15.5186518  0.00   -0.0606937    0.1234568    0.5509381
 H   -0.1994023   18.0599681   17.1088878  0.00   -0.3297222   -0.2847772   -0.2404029
 H   -0.1861469   15.7777150   14.7292534  0.00    0.2540025   -0.4163054    0.2406767
 H   -0.0562858   14.1431670   15.5893912  0.00    0.2457048    0.3650371   -0.1602055
 H    1.4382790   15.2227106   15.4205062  0.00   -0.5907687    0.0066682   -0.0361526
 H   -0.3555256   14.0046410   17.9736670  0.00   -0.3347339    0.3438996   -0.0713624
 H   -1.8320529   14.6703298   17.0747744  0.00    0.3642567    0.1199424    0.3186514
 H   -1.2728717   15.4643335   18.6518990  0.00    0.0109516   -0.3132820   -0.3392943
 H    7.7991847   18.3984824   16.7266055  0.00   -0.1214102   -0.1728870    0.4586074
 H    7.1180707   17.1833979   17.9462262  0.00    0.1286748    0.4951064   -0.0688412
 H    7.4639850   18.9247791   18.4697926  0.00    0.0348594   -0.3735026   -0.4108167
 H    4.5187182   18.8809242   19.0424478  0.00    0.2579100    0.3377702   -0.1844335
 H    4.4373412   20.3199948   17.8798453  0.00    0.1721166   -0.3147154    0.3651281
 H    5.9611719   20.0327749   18.8916393  0.00   -0.4842669   -0.0734281   -0.1693141
 H    5.0979742   20.3898439   15.9931155  0.00    0.2612347   -0.3755827   -0.2360467
 H    5.3477987   18.8119026   15.0580524  0.00    0.2175925    0.4032773    0.2737214
 H    6.8110193   19.7590004   15.6831221  0.00   -0.5084657    0.0101251   -0.0375337
 C    5.5446306   15.0791355   14.0643493  0.00    0.1329704   -0.1818933   -0.3877627
 H    3.5964232   12.5565054   15.1197557  0.00   -0.1792367    0.4577129   -0.2083606
 H    3.3913588   13.7752908   13.7409801  0.00   -0.0827911   -0.1316104    0.4237995
 H    2.7219424   14.1588480   15.4239858  0.00    0.3974746   -0.3413984   -0.3237872
 H    6.5373237   12.8864808   15.0247477  0.00   -0.2500153    0.0200957    0.3760636
 H    5.2067122   12.3808439   16.2093151  0.00    0.4327539    0.3717518   -0.0551639
 H    6.4142394   13.7010925   16.6837351  0.00   -0.1701215   -0.2813307   -0.3717170
 H    4.7343423   15.4571172   13.3682090  0.00    0.4488427   -0.0855129    0.2512119
 H    6.2416194   14.3897285   13.5027802  0.00   -0.2803854    0.3199507    0.0909776
 H    6.1309643   15.9596340   14.4714844  0.00   -0.1227556   -0.6381257   -0.6139865
 H    6.4645171   12.4990588   21.5401900  0.00    0.2325415    0.4087745    0.0649177
 H    6.3917342   14.2992672   21.9710849  0.00    0.2410884   -0.3716272   -0.1440647
 H    8.0309271   13.4512929   21.8078071  0.00   -0.4472903   -0.0073136   -0.0664668
 H    7.7904392   15.4479661   18.6366907  0.00   -0.0655539   -0.0161889    0.4809214
 H    8.5411704   15.3639800   20.3281721  0.00   -0.3515018    0.0468826   -0.2784151
 H    6.8268794   16.0309273   20.1074662  0.00    0.3692840   -0.2536477   -0.1667457
 H    7.7860830   12.9991168   18.0641894  0.00    0.1350487   -0.1068186    0.4566097
 H    7.6583937   11.8172979   19.4850132  0.00    0.1990230    0.3504725   -0.2057612
 H    9.0039488   13.0903876   19.4572800  0.00   -0.3972612   -0.1878590   -0.1334405
 H    2.4125710    9.8349764   19.9218835  0.00    0.1410592    0.4316240    0.1885784
 H    2.1334925   11.4605178   20.7654160  0.00    0.3336043   -0.2685000   -0.1694108
 H    3.8565998   10.8262831   20.5231079  0.00   -0.4944316   -0.1022452   -0.0727481
 H    2.9956731   10.9304365   16.6359482  0.00    0.2695724   -0.2019166    0.3493229
 H    3.0185577    9.5726872   17.8956524  0.00    0.1741069    0.3700919   -0.2488255
 H    4.5236661   10.6205919   17.6358968  0.00   -0.4632916   -0.1198269   -0.0451978
 H    0.7446742   11.2493900   18.5039439  0.00    0.1973094    0.3595415   -0.1204948
 H    1.4783282   12.4190516   17.2682315  0.00   -0.0868018   -0.0669947    0.4465902
 H    1.2155828   12.9656664   19.0185393  0.00    0.0589173   -0.4094704   -0.2950161
 H    4.6402198   16.7546455   20.4455838  0.00   -0.1524706   -0.0912941    0.4485719
 H    4.5386462   15.4226781   21.7276585  0.00   -0.0022166    0.4904028   -0.1981803
 H    4.0750302   17.1616743   22.1612974  0.00    0.1962445   -0.3906788   -0.3097201
 H    2.9878459   14.3136220   22.1636314  0.00   -0.4774627    0.0276272   -0.2328449
 H    1.9079827   14.0335467   20.6865432  0.00    0.1319391    0.1980696    0.4607656
 H    1.2376869   14.9172646   22.1692936  0.00    0.3762525   -0.2782039   -0.2240343
 H    0.9445445   16.7942089   22.1594155  0.00    0.2541336    0.3840185   -0.2541537
 H    1.2451428   17.7670519   20.6133739  0.00    0.1265876   -0.1153484    0.4906841
 H    2.3824166   17.9560206   22.0612363  0.00   -0.4772311   -0.1841993   -0.2423129
 H    5.4068606   11.8304883   19.7309180  0.00   -0.1999759    0.0642203   -0.0829339
 H    0.5454834   15.8584488   19.4044429  0.00   -0.8529821   -0.2751778    0.7710313
 H    5.9012914   16.7856997   15.6417999  0.00    1.1181639    0.1956388   -0.8084716
122
 Energy =   -4153.2692215090
Mn    4.0262054   14.9261184   18.3102588  0.00   -0.0080681   -0.0602338    0.0630408
Mn    2.6684873   17.6856721   16.9977368  0.00   -0.0295388    0.0587563   -0.0348691
 N    2.1534353   18.7140486   15.1446300  0.00   -0.0748743    0.1793138   -0.0860380
 N    4.7849839   17.4882266   17.1108717  0.00   -0.1699610    0.0377175    0.1958102
 N    5.6522436   13.8724765   19.3399418  0.00    0.0580446    0.0165599    0.0422351
 N    4.5831089   15.3210624   16.2878484  0.00    0.0667505    0.3040354    0.1871759
 N    3.7411064   12.7940170   18.7684584  0.00    0.0429968   -0.0460285    0.0702564
 N    1.7264144   19.6701324   17.1467511  0.00   -0.0962792    0.1466141   -0.1528639
 N    2.6041129   16.0476215   19.4528919  0.00    0.0056764   -0.0252737   -0.0551662
 N    1.2729387   16.1782053   17.5621800  0.00    0.0809374   -0.0990323   -0.0432208
 C    4.9441908   12.7593099   19.3121008  0.00    0.0855270    0.0211681   -0.0565624
 C    5.1543786   16.5096717   16.3031979  0.00   -0.6424509   -0.0743810    0.5535471
 C    2.1786568   18.7200518   13.6836733  0.00    0.0274444   -0.0157442    0.0014678
 C    1.4285967   15.9909050   18.8498985  0.00    0.1634601    0.1766221   -0.1567402
 C    4.8962905   14.3301732   15.2425203  0.00    0.0132049    0.1286502    0.0621714
 C    1.6952264   19.7510148   15.8250701  0.00    0.0718444    0.1338192   -0.0935768
 C    3.5580441   13.6538325   14.8483436  0.00    0.0484851   -0.0046826   -0.0965493
 C    2.8922171   11.6048974   18.7179424  0.00    0.0023860    0.0442520    0.0076242
 C    5.8333677   13.2471079   15.8303758  0.00    0.0810778    0.0463884   -0.0146543
 C    7.0024445   13.8655817   19.9139627  0.00   -0.0210250    0.0396413   -0.0380645
 C   -0.0154995   15.8886336   16.9059851  0.00   -0.0079892    0.0141612   -0.0761685
 C    2.6064546   20.0812608   13.1024419  0.00    0.0091213   -0.0044320    0.0230412
 C    5.6830659   18.6607918   17.2193381  0.00   -0.0666828    0.0221696    0.0608068
 C    1.2055974   20.7818901   17.9479201  0.00    0.0255404   -0.0235549   -0.0273276
 C    0.7921810   18.3495840   13.1146126  0.00    0.0161487   -0.0032731   -0.0071903
 C    2.8196269   10.8815851   20.0786114  0.00    0.0030863    0.0266695    0.0277393
 C   -0.7725569   17.2105465   16.6365257  0.00   -0.0556017    0.0695643    0.0249487
 C    3.2072402   17.6663176   13.2606022  0.00   -0.0211512   -0.0058558   -0.0397350
 C    0.3177552   15.2076008   15.5638250  0.00   -0.0415579   -0.0642367   -0.0721272
 C    6.9705079   13.5047138   21.4124034  0.00   -0.0042142    0.0242809   -0.0219916
 C    3.3929276   10.6108247   17.6459424  0.00    0.0084202   -0.0069017   -0.0093075
 C   -0.2791346   21.0555742   17.6221649  0.00    0.0319497    0.0048549   -0.0260363
 C    2.6202877   16.0939323   20.9285213  0.00    0.0612347    0.0110755   -0.0092228
 C    7.1206207   18.2576690   17.6178005  0.00    0.0529233   -0.1078820   -0.0277307
 C    7.5805649   15.2736318   19.7368238  0.00   -0.0003677    0.0009041    0.0169841
 C   -0.9292967   14.9422788   17.7108418  0.00    0.0592632    0.0421850    0.0439368
 C    1.3169807   20.3775054   19.4275980  0.00   -0.0016740    0.0156695    0.0679957
 C    5.1071867   19.5399499   18.3388419  0.00   -0.0416593    0.0804288    0.0673455
 C    7.9268142   12.8726940   19.1798552  0.00   -0.0152836   -0.0101898    0.0069107
 C    1.4841280   12.0891140   18.3507487  0.00   -0.0186989   -0.0363869   -0.0216462
 C    4.0755751   16.3759818   21.3476080  0.00    0.1059569   -0.0084531    0.0254504
 C    2.0275882   22.0684079   17.7063088  0.00   -0.0241717   -0.0195385   -0.0147591
 C    2.1522811   14.7408569   21.5316356  0.00   -0.0378251   -0.0499837    0.0153949
 C    5.7398102   19.4655440   15.8939692  0.00   -0.0074718    0.0167415   -0.0266039
 C    1.7305876   17.2360488   21.4785952  0.00   -0.0729002    0.0519591   -0.0242866
 H   -0.8709731   20.1177623   17.7900806  0.00    0.0899849    0.2829192   -0.0793307
 H   -0.3715616   21.3749560   16.5531691  0.00   -0.1125299   -0.0516797    0.2480424
 H   -0.6652420   21.8686207   18.2939066  0.00    0.0288811   -0.2049395   -0.2241162
 H    1.9886380   21.0975177   19.9573427  0.00   -0.1780215   -0.2414680    0.0436145
 H    1.7465232   19.3463890   19.4834758  0.00   -0.1094207    0.3103566    0.0843325
 H    0.2998079   20.3912226   19.8928351  0.00    0.2968866   -0.0495683    0.0546485
 H    2.0984541   22.2612861   16.6052420  0.00    0.0249191    0.0780545    0.2831496
 H    3.0563583   21.9335651   18.1324139  0.00   -0.2472075    0.1140833   -0.1711359
 H    1.5241140   22.9364039   18.2095800  0.00    0.1997694   -0.1651526   -0.1424204
 H    1.3354543   20.6970793   15.2980486  0.00    0.0934924   -0.4423723    0.2410426
 H    2.6235475   20.0158238   11.9820235  0.00    0.0175825    0.1034199    0.2986813
 H    3.6291037   20.3368529   13.4816110  0.00   -0.2473345    0.0342297   -0.1117472
 H    1.8759201   20.8683705   13.4192499  0.00    0.2354277   -0.0945319   -0.1950210
 H    0.6152487   17.2535921   13.2639162  0.00   -0.0671575    0.2890271   -0.0512247
 H    0.7609817   18.5920743   12.0200077  0.00   -0.0841663   -0.1265184    0.2462347
 H    0.0032517   18.9364255   13.6537793  0.00    0.1404930   -0.1652931   -0.2045321
 H    3.2723820   17.6308806   12.1435908  0.00    0.0458662   -0.0740836    0.2370646
 H    2.8901206   16.6659913   13.6559994  0.00    0.1360788    0.2320141   -0.1184474
 H    4.2070716   17.9390442   13.6897617  0.00   -0.2518190   -0.1417983   -0.1719874
 H   -1.7978455   17.1435529   17.0796158  0.00    0.1845295    0.1527553   -0.1438866
 H   -0.8473226   17.3704634   15.5320877  0.00   -0.0717450    0.1484608    0.3479450
 H   -0.2075325   18.0533284   17.1030310  0.00   -0.2261021   -0.1174392   -0.1478121
 H   -0.1799592   15.7673801   14.7348267  0.00    0.1551942   -0.3056216    0.0832567
 H   -0.0501985   14.1518414   15.5852363  0.00    0.1774760    0.1780455   -0.1551993
 H    1.4239226   15.2228229   15.4193835  0.00   -0.3609465   -0.0028736   -0.0723109
 H   -0.3637765   14.0128755   17.9720683  0.00   -0.2296427    0.1854364   -0.0185805
 H   -1.8230623   14.6732867   17.0827171  0.00    0.2491953    0.0835368    0.2349988
 H   -1.2727768   15.4565579   18.6437915  0.00   -0.0355907   -0.2246702   -0.1789821
 H    7.7965518   18.3940563   16.7378293  0.00   -0.0043912   -0.1550478    0.2929857
 H    7.1214953   17.1951217   17.9447294  0.00    0.1374214    0.2372837    0.0007775
 H    7.4650631   18.9154789   18.4596802  0.00    0.0753107   -0.2776320   -0.2815759
 H    4.5249163   18.8892924   19.0382294  0.00    0.1495521    0.2364420   -0.0573915
 H    4.4412018   20.3125775   17.8889307  0.00    0.0368054   -0.1527534    0.2719722
 H    5.9492500   20.0312418   18.8876710  0.00   -0.3354577    0.0144715   -0.0701479
 H    5.1042757   20.3808288   15.9871092  0.00    0.1468571   -0.2113626   -0.2075539
 H    5.3531731   18.8218967   15.0645038  0.00    0.1470865    0.2877521    0.1182302
 H    6.7986188   19.7594449   15.6820098  0.00   -0.3229711    0.0525052   -0.0649249
 C    5.5473249   15.0744088   14.0555798  0.00   -0.0079991   -0.1441739   -0.1047887
 H    3.5918704   12.5675527   15.1145499  0.00   -0.1526994    0.2696712   -0.1619217
 H    3.3891031   13.7719829   13.7510458  0.00   -0.1059506   -0.1053306    0.2136126
 H    2.7315570   14.1503331   15.4159444  0.00    0.2344574   -0.2482632   -0.2303203
 H    6.5313873   12.8867792   15.0339165  0.00   -0.1253598   -0.0323471    0.2385996
 H    5.2175065   12.3898941   16.2081119  0.00    0.3253310    0.2391538   -0.0018150
 H    6.4103846   13.6941115   16.6748122  0.00   -0.0432483   -0.1955230   -0.2047138
 H    4.7454254   15.4550984   13.3741527  0.00    0.3054562   -0.0360801    0.1157643
 H    6.2349770   14.3972481   13.5046130  0.00   -0.1365053    0.1373812   -0.0309057
 H    6.1281481   15.9438983   14.4560627  0.00   -0.0202822   -0.4658778   -0.5264618
 H    6.4702135   12.5090334   21.5419711  0.00    0.1528018    0.2592616    0.0802607
 H    6.3975754   14.2901894   21.9677812  0.00    0.1440573   -0.2379908   -0.0499261
 H    8.0199726   13.4510890   21.8063250  0.00   -0.2919421   -0.0099806   -0.0125992
 H    7.7888846   15.4477162   18.6484798  0.00   -0.0330314    0.0184428    0.3112679
 H    8.5326667   15.3652552   20.3213544  0.00   -0.2057001    0.0574556   -0.1826499
 H    6.8359409   16.0249310   20.1034080  0.00    0.2434688   -0.1221856   -0.1031396
 H    7.7895099   12.9963865   18.0752292  0.00    0.1125482   -0.0905004    0.2678214