122
 Energy =   -4153.1257506030
Mn    4.0266551   14.9271635   18.3085756  0.00    0.0556709    0.0293127    0.0903139
Mn    2.6673737   17.6852084   16.9981832  0.00    0.1675931    0.1153372    0.0171095
 N    2.1571906   18.7069640   15.1503025  0.00    0.9759606    0.0964480   -0.2883858
 N    4.7972096   17.4796658   17.0950516  0.00    0.2726670   -0.0931661    0.3788228
 N    5.6471126   13.8724417   19.3364353  0.00    0.1468069    0.0455702    0.0866669
 N    4.5888321   15.3301066   16.2809164  0.00    0.3905681   -0.0720463    0.3539601
 N    3.7404377   12.7992508   18.7650853  0.00   -0.0226950   -0.2972621    0.1112990
 N    1.7319877   19.6619926   17.1491857  0.00    0.7603100    0.5265482    0.4933400
 N    2.5977804   16.0492080   19.4502392  0.00    0.2349051    0.7243811    0.1270149
 N    1.2717870   16.1818674   17.5723391  0.00   -0.4041831    0.4544352    0.2510457
 C    4.9389104   12.7583409   19.3144053  0.00    0.4780369   -0.0261474    0.1273590
 C    5.1836937   16.5041821   16.2724487  0.00   -1.1843450    0.7047404   -0.7061359
 C    2.1758963   18.7230499   13.6790227  0.00   -0.0618003   -0.2027591    0.2278004
 C    1.4097668   15.9810909   18.8637603  0.00    0.3672250   -1.9279366   -0.3004404
 C    4.8946603   14.3135144   15.2370674  0.00   -0.0101521    0.6502216    0.1235820
 C    1.6958837   19.7334857   15.8378804  0.00   -2.0164767   -1.2971130   -0.0153400
 C    3.5660522   13.6593525   14.8563788  0.00   -0.3838641   -0.2584214   -0.3194221
 C    2.8911382   11.5973724   18.7180523  0.00    0.0580174    0.3253276   -0.0036497
 C    5.8222020   13.2528348   15.8262953  0.00    0.4542673   -0.2842300    0.1998017
 C    7.0081037   13.8625121   19.9189459  0.00   -0.2488479    0.1192900   -0.2003159
 C   -0.0184040   15.8877527   16.9049519  0.00    0.1390273   -0.1396536    0.0336677
 C    2.6037139   20.0728794   13.1036196  0.00    0.1076034    0.3982756   -0.0193999
 C    5.6870382   18.6680400   17.2227252  0.00   -0.2022536   -0.2460131   -0.1997454
 C    1.2017915   20.7866188   17.9527490  0.00   -0.0153584   -0.2947792   -0.2305700
 C    0.7995182   18.3520802   13.1178457  0.00   -0.3319632   -0.1147125   -0.1736965
 C    2.8189301   10.8842287   20.0683119  0.00    0.0300610   -0.1343123    0.4436567
 C   -0.7652244   17.1974666   16.6370320  0.00   -0.2666473    0.5410052   -0.0239050
 C    3.2031011   17.6719028   13.2657952  0.00    0.1859056   -0.2503979   -0.2088975
 C    0.3157845   15.2153204   15.5767060  0.00    0.1048007   -0.3011855   -0.5410797
 C    6.9713962   13.5052452   21.4044321  0.00   -0.0331570   -0.0357817    0.3737966
 C    3.3891525   10.6175197   17.6531770  0.00    0.1623725   -0.2956541   -0.3176454
 C   -0.2725402   21.0541222   17.6264448  0.00   -0.3288008    0.1097484   -0.1769222
 C    2.6187992   16.0936926   20.9351742  0.00    0.0846853   -0.1065804   -0.3043664
 C    7.1071635   18.2682744   17.6163736  0.00    0.5608722   -0.4083110    0.0886222
 C    7.5778232   15.2657628   19.7361843  0.00    0.1223489    0.3484821    0.0201794
 C   -0.9282456   14.9458311   17.7029176  0.00   -0.1137834   -0.1593494    0.3267208
 C    1.3164394   20.3793067   19.4130348  0.00    0.0127015   -0.1035471    0.6142671
 C    5.1159107   19.5287374   18.3272969  0.00   -0.3541010    0.4912761    0.4843807
 C    7.9227726   12.8792834   19.1840403  0.00    0.1902600   -0.2869013   -0.1894446
 C    1.4934396   12.0892846   18.3540358  0.00   -0.3975350   -0.0014215   -0.1369164
 C    4.0589376   16.3758917   21.3433412  0.00    0.6819807   -0.0023720    0.1929026
 C    2.0244404   22.0629692   17.7090916  0.00    0.1699961    0.2289885   -0.1383991
 C    2.1581962   14.7529984   21.5268798  0.00   -0.2519334   -0.4846251    0.2471880
 C    5.7394343   19.4584359   15.9036104  0.00    0.0348223    0.3286645   -0.3869602
 C    1.7418434   17.2248723   21.4768927  0.00   -0.4516181    0.4679639    0.0873118
 H   -0.8774816   20.1024523   17.7936859  0.00    0.2215387    0.4957552   -0.0998982
 H   -0.3679655   21.3786667   16.5377924  0.00   -0.1014601   -0.1043475    0.5396748
 H   -0.6681719   21.8801061   18.3052860  0.00    0.1083780   -0.3825165   -0.3661543
 H    1.9992790   21.1108406   19.9591003  0.00   -0.3565135   -0.4377753   -0.1016838
 H    1.7531928   19.3285031   19.4812794  0.00   -0.2175566    0.5933142    0.0480443
 H    0.2828119   20.3931641   19.8936818  0.00    0.5622736   -0.0543269   -0.0647178
 H    2.0979584   22.2595515   16.5885784  0.00   -0.0071015   -0.0000051    0.5305510
 H    3.0709575   21.9287462   18.1408151  0.00   -0.4842793    0.1428291   -0.2670745
 H    1.5142031   22.9467194   18.2172675  0.00    0.3072715   -0.3576708   -0.2323898
 H    0.6140285   19.9095454   15.5245251  0.00    0.4879144    1.0390409   -0.4221099
 H    2.6231637   20.0118108   11.9654230  0.00    0.0149477    0.1060846    0.5344382
 H    3.6439580   20.3372398   13.4878137  0.00   -0.4989081   -0.0412800   -0.2004513
 H    1.8631093   20.8763627   13.4284560  0.00    0.3957161   -0.2984801   -0.2166290
 H    0.6165219   17.2367401   13.2666009  0.00   -0.0148880    0.5552135   -0.0886149
 H    0.7639282   18.5979306   12.0052406  0.00   -0.0954591   -0.1762873    0.4991312
 H   -0.0061076   18.9455181   13.6641036  0.00    0.3112807   -0.2916708   -0.3420415
 H    3.2709399   17.6333855   12.1284679  0.00    0.0336682   -0.0682430    0.5085149
 H    2.8835713   16.6519101   13.6621725  0.00    0.2054887    0.4684775   -0.2006318
 H    4.2218136   17.9455134   13.6981856  0.00   -0.4992402   -0.1857726   -0.2662066
 H   -1.8106988   17.1377819   17.0876095  0.00    0.4574701    0.1624989   -0.2579396
 H   -0.8451815   17.3661073   15.5124137  0.00   -0.0498318    0.0957074    0.6413873
 H   -0.1957751   18.0635481   17.1116155  0.00   -0.3776945   -0.3750746   -0.2655085
 H   -0.1890300   15.7822137   14.7261805  0.00    0.3065372   -0.4682874    0.3195113
 H   -0.0589554   14.1387669   15.5909127  0.00    0.2825379    0.4631753   -0.1562462
 H    1.4450265   15.2225758   15.4206320  0.00   -0.6933775    0.0111402   -0.0276392
 H   -0.3518391   14.0005681   17.9746388  0.00   -0.4102139    0.4088397   -0.1184412
 H   -1.8360509   14.6690077   17.0713659  0.00    0.4236943    0.1334414    0.3339436
 H   -1.2731981   15.4677194   18.6559337  0.00    0.0650157   -0.3510632   -0.4241920
 H    7.8009422   18.4001946   16.7214617  0.00   -0.1918460   -0.1809423    0.5292717
 H    7.1169487   17.1773828   17.9472196  0.00    0.1097548    0.6238553   -0.1093088
 H    7.4638558   18.9287833   18.4743350  0.00    0.0129549   -0.4127687   -0.4683217
 H    4.5156896   18.8772531   19.0448636  0.00    0.3121541    0.3767461   -0.2548462
 H    4.4349966   20.3238590   17.8759247  0.00    0.2457512   -0.4042284    0.4089783
 H    5.9665211   20.0339076   18.8937457  0.00   -0.5508415   -0.1179576   -0.2188737
 H    5.0949346   20.3942651   15.9954963  0.00    0.3143112   -0.4621666   -0.2440785
 H    5.3454144   18.8075244   15.0546923  0.00    0.2478533    0.4608099    0.3481127
 H    6.8167739   19.7591179   15.6833178  0.00   -0.5974618   -0.0168604   -0.0280893
 C    5.5424835   15.0808550   14.0695434  0.00    0.2489557   -0.3609287   -0.6528489
 H    3.5982404   12.5511893   15.1219675  0.00   -0.1891447    0.5557493   -0.2273005
 H    3.3920198   13.7766660   13.7358658  0.00   -0.0692823   -0.1413244    0.5346889
 H    2.7173510   14.1624913   15.4274803  0.00    0.4702670   -0.3828469   -0.3623516
 H    6.5403432   12.8860297   15.0204873  0.00   -0.3185991    0.0549795    0.4398614
 H    5.2020956   12.3766172   16.2101052  0.00    0.4769061    0.4403750   -0.0825999
 H    6.4165098   13.7041371   16.6881095  0.00   -0.2373863   -0.3134618   -0.4552782
 H    4.7294224   15.4581641   13.3651510  0.00    0.5127495   -0.1011053    0.3128962
 H    6.2450233   14.3857762   13.5012984  0.00   -0.3673754    0.3937361    0.1546275
 H    6.1325620   15.9666557   14.4779105  0.00   -0.0609518   -0.8697455   -0.7391113
 H    6.4619135   12.4944372   21.5396864  0.00    0.2723888    0.4793311    0.0580587
 H    6.3889587   14.3034559   21.9729612  0.00    0.2876536   -0.4350568   -0.1956750
 H    8.0359353   13.4513453   21.8087223  0.00   -0.5204891   -0.0061744   -0.0966248
 H    7.7912322   15.4483194   18.6313182  0.00   -0.0836207   -0.0353002    0.5594160
 H    8.5452286   15.3636038   20.3312921  0.00   -0.4212292    0.0376457   -0.3229634
 H    6.8227628   16.0340203   20.1093641  0.00    0.4273718   -0.3219235   -0.1985049
 H    7.7847105   13.0001797   18.0589083  0.00    0.1429573   -0.1105296    0.5481565
 H    7.6562771   11.8131356   19.4872042  0.00    0.2235370    0.4298715   -0.2283488
 H    9.0084777   13.0923313   19.4587297  0.00   -0.4717681   -0.2011442   -0.1499078
 H    2.4109492    9.8301176   19.9199863  0.00    0.1675374    0.5045104    0.1960951
 H    2.1297564   11.4635242   20.7676370  0.00    0.3872567   -0.3121276   -0.2303134
 H    3.8622378   10.8272385   20.5242290  0.00   -0.5821768   -0.0950207   -0.1216096
 H    2.9927986   10.9325829   16.6317868  0.00    0.2974702   -0.2233685    0.4306248
 H    3.0166150    9.5683482   17.8982364  0.00    0.2015897    0.4510142   -0.2683146
 H    4.5290191   10.6217276   17.6362736  0.00   -0.5563176   -0.1164261   -0.0369055
 H    0.7421926   11.2452626   18.5052113  0.00    0.2576991    0.4324669   -0.1318667
 H    1.4790933   12.4199148   17.2631292  0.00   -0.0800409   -0.0899773    0.5260110
 H    1.2147406   12.9702095   19.0217913  0.00    0.0893981   -0.4872580   -0.3357534
 H    4.6422778   16.7558139   20.4405829  0.00   -0.2219091   -0.1203140    0.5168945
 H    4.5391794   15.4169967   21.7299771  0.00   -0.0551469    0.5873680   -0.2346410
 H    4.0731667   17.1660647   22.1649393  0.00    0.1920730   -0.4561621   -0.3761632
 H    2.9930915   14.3130059   22.1663764  0.00   -0.5420824    0.0638687   -0.2934770
 H    1.9064194   14.0309504   20.6813892  0.00    0.1652417    0.2464362    0.5417640
 H    1.2332558   14.9200851   22.1719895  0.00    0.4587852   -0.3075911   -0.2820533
 H    0.9414081   16.7901482   22.1623980  0.00    0.3274234    0.4139034   -0.3118789
 H    1.2433632   17.7687350   20.6077954  0.00    0.1798848   -0.1912352    0.5643467
 H    2.3875058   17.9583608   22.0640161  0.00   -0.5269434   -0.2403264   -0.2852856
 H    5.4646654   11.8542994   19.7681562  0.00   -0.4870666    0.1614331   -0.2540401
 H    0.8148096   15.1133867   19.3027528  0.00   -0.4364502    0.8495701    0.1158084
 H    5.5852664   16.8533646   15.2642770  0.00    0.2897967   -0.0128587    0.9549209
122
 Energy =   -4153.1654732560
Mn    4.0272589   14.9274813   18.3095550  0.00    0.0592785    0.0186626    0.0964661
Mn    2.6691911   17.6864590   16.9983688  0.00    0.1608530    0.1209910    0.0364928
 N    2.1677734   18.7080096   15.1471753  0.00    0.8370297    0.1593006   -0.1687299
 N    4.8001665   17.4786553   17.0991592  0.00    0.1995968   -0.0572258    0.3688981
 N    5.6487046   13.8729358   19.3373752  0.00    0.1195070    0.0461323    0.0695767
 N    4.5930671   15.3293250   16.2847547  0.00    0.3443323   -0.0284835    0.2976859
 N    3.7401916   12.7960275   18.7662926  0.00    0.0995381   -0.2045806    0.1402137
 N    1.7402324   19.6677023   17.1545351  0.00    0.6833821    0.4367192    0.2184606
 N    2.6003278   16.0570630   19.4516166  0.00    0.1562966    0.6220933    0.0492410
 N    1.2674044   16.1867951   17.5750616  0.00   -0.3658206    0.3855886    0.2509160
 C    4.9440941   12.7580574   19.3157866  0.00    0.2767060    0.0080271    0.0410483
 C    5.1708513   16.5118237   16.2647916  0.00   -1.0853693    0.5580584   -0.5617629
 C    2.1752261   18.7208509   13.6814928  0.00   -0.0249315   -0.1586785    0.1112291
 C    1.4137490   15.9601856   18.8605027  0.00    0.4778021   -1.6051546   -0.3180441
 C    4.8945501   14.3205647   15.2384076  0.00    0.0064179    0.4393099    0.0924756
 C    1.6740182   19.7194204   15.8377140  0.00   -1.6318356   -1.3101675    0.1763797
 C    3.5618895   13.6565500   14.8529155  0.00   -0.2031726   -0.1365423   -0.2153315
 C    2.8917672   11.6009002   18.7180133  0.00    0.0296236    0.1873224    0.0043585
 C    5.8271276   13.2497524   15.8284620  0.00    0.2831515   -0.1308513    0.1049797
 C    7.0054055   13.8638056   19.9167738  0.00   -0.1388135    0.0979509   -0.1271821
 C   -0.0168964   15.8862385   16.9053174  0.00    0.0612101   -0.0908851   -0.0088788
 C    2.6048807   20.0771976   13.1034090  0.00    0.0577856    0.2156875    0.0116822
 C    5.6848453   18.6653721   17.2205588  0.00   -0.1222490   -0.1308247   -0.1044700
 C    1.2016254   20.7834225   17.9502486  0.00   -0.0127468   -0.1896602   -0.1016136
 C    0.7959184   18.3508359   13.1159623  0.00   -0.1998291   -0.0725030   -0.0950520
 C    2.8192561   10.8827725   20.0731234  0.00    0.0169095   -0.0654332    0.2645219
 C   -0.7681157   17.2033331   16.6367731  0.00   -0.1698821    0.3262455   -0.0046048
 C    3.2051168   17.6691871   13.2635300  0.00    0.0919279   -0.1502110   -0.1544980
 C    0.3169208   15.2120544   15.5708392  0.00    0.0571823   -0.2046217   -0.3406352
 C    6.9710370   13.5048573   21.4084854  0.00   -0.0238343   -0.0091656    0.2009675
 C    3.3909130   10.6143137   17.6497333  0.00    0.0944791   -0.1727178   -0.1855202
 C   -0.2761051   21.0553124   17.6245262  0.00   -0.1882942    0.0565581   -0.1262265
 C    2.6197179   16.0925372   20.9318739  0.00    0.0814696   -0.0549387   -0.1685610
 C    7.1132455   18.2638466   17.6173341  0.00    0.3424878   -0.2711464    0.0380795
 C    7.5791502   15.2695414   19.7364029  0.00    0.0697608    0.2019169    0.0169923
 C   -0.9294794   14.9441035   17.7064610  0.00   -0.0485557   -0.0835169    0.2002725
 C    1.3165776   20.3781842   19.4196954  0.00   -0.0047319   -0.0520439    0.3847509
 C    5.1120714   19.5340645   18.3325488  0.00   -0.2265680    0.3024327    0.2953289
 C    7.9248357   12.8761722   19.1819861  0.00    0.0989480   -0.1674889   -0.1075231
 C    1.4891289   12.0892693   18.3525518  0.00   -0.2374604   -0.0149308   -0.0893059
 C    4.0663331   16.3758663   21.3454330  0.00    0.4383810   -0.0111437    0.1203971
 C    2.0262842   22.0654523   17.7075904  0.00    0.0763611    0.1138672   -0.0866153
 C    2.1554648   14.7477438   21.5295606  0.00   -0.1639449   -0.3071533    0.1439837
 C    5.7398120   19.4619994   15.8994139  0.00    0.0184512    0.2029171   -0.2424427
 C    1.7369468   17.2299471   21.4778396  0.00   -0.2850761    0.2819625    0.0385429
 H   -0.8750790   20.1078282   17.7926027  0.00    0.1666467    0.4251307   -0.0924843
 H   -0.3690654   21.3775353   16.5436442  0.00   -0.1173335   -0.0715960    0.4357335
 H   -0.6669962   21.8759586   18.3013154  0.00    0.0800385   -0.3182110   -0.3159174
 H    1.9954138   21.1060938   19.9579974  0.00   -0.2920936   -0.3671469   -0.0471085
 H    1.7508342   19.3349369   19.4818002  0.00   -0.1772769    0.4912838    0.0678026
 H    0.2889095   20.3925754   19.8929799  0.00    0.4628226   -0.0533036   -0.0128080
 H    2.0978818   22.2595514   16.5943310  0.00    0.0030335    0.0193079    0.4299424
 H    3.0657068   21.9302950   18.1379186  0.00   -0.3989205    0.1320517   -0.2354042
 H    1.5175355   22.9428411   18.2147471  0.00    0.2708786   -0.2925155   -0.1995731
 H    0.6193193   19.9208122   15.5199479  0.00    0.2917727    1.0081050   -0.4519557
 H    2.6233257   20.0129605   11.9712179  0.00    0.0167989    0.1079704    0.4559834
 H    3.6385481   20.3367917   13.4856397  0.00   -0.4072806   -0.0136487   -0.1653469
 H    1.8674003   20.8731257   13.4261067  0.00    0.3294571   -0.2204321   -0.1843933
 H    0.6163603   17.2427602   13.2656402  0.00   -0.0379050    0.4563259   -0.0795409
 H    0.7628928   18.5960186   12.0106530  0.00   -0.0972567   -0.1553686    0.4070566
 H   -0.0027323   18.9423551   13.6603948  0.00    0.2410851   -0.2493867   -0.3023617
 H    3.2713047   17.6326449   12.1339819  0.00    0.0397046   -0.0743990    0.4057528
 H    2.8857993   16.6569896   13.6599970  0.00    0.1841300    0.3789016   -0.1743201
 H    4.2163999   17.9434985   13.6952988  0.00   -0.4176142   -0.1670937   -0.2351626
 H   -1.8057381   17.1395442   17.0848130  0.00    0.3615022    0.1630730   -0.2168925
 H   -0.8457219   17.3671451   15.5193689  0.00   -0.0592256    0.1149499    0.5351246
 H   -0.1998704   18.0594811   17.1087366  0.00   -0.3238649   -0.2810231   -0.2150355
 H   -0.1857062   15.7771357   14.7296456  0.00    0.2549715   -0.4103231    0.2307380
 H   -0.0558919   14.1437893   15.5892190  0.00    0.2482064    0.3585168   -0.1616793
 H    1.4375078   15.2226964   15.4203327  0.00   -0.5697595    0.0027100   -0.0532834
 H   -0.3562872   14.0050015   17.9733552  0.00   -0.3603141    0.3212057   -0.0860978
 H   -1.8314566   14.6704548   17.0749878  0.00    0.3623414    0.1131047    0.2986987
 H   -1.2724929   15.4639130   18.6513346  0.00    0.0352534   -0.3016701   -0.3297058
 H    7.7988621   18.3982321   16.7272003  0.00   -0.1208744   -0.1737161    0.4424497
 H    7.1181390   17.1841473   17.9460339  0.00    0.1198866    0.4779609   -0.0686181
 H    7.4639966   18.9243072   18.4692562  0.00    0.0402934   -0.3668947   -0.4006187
 H    4.5190748   18.8813384   19.0420999  0.00    0.2490581    0.3274625   -0.1807338
 H    4.4376617   20.3194757   17.8803590  0.00    0.1640848   -0.3050824    0.3621023
 H    5.9605485   20.0326284   18.8913718  0.00   -0.4713477   -0.0680714   -0.1618641
 H    5.0983430   20.3892533   15.9928491  0.00    0.2525248   -0.3673611   -0.2342583
 H    5.3481021   18.8125208   15.0584667  0.00    0.2130577    0.4116521    0.2648190
 H    6.8102955   19.7589346   15.6830126  0.00   -0.4946228    0.0109567   -0.0468069
 C    5.5451828   15.0769407   14.0624643  0.00    0.1431856   -0.2842763   -0.4404766
 H    3.5961890   12.5572152   15.1195032  0.00   -0.1789415    0.4498521   -0.2037508
 H    3.3912682   13.7751331   13.7416640  0.00   -0.0890947   -0.1302481    0.4127857
 H    2.7224501   14.1583396   15.4235515  0.00    0.3813439   -0.3411932   -0.3187151
 H    6.5368881   12.8866253   15.0252571  0.00   -0.2457133    0.0217455    0.3669375
 H    5.2072667   12.3813921   16.2092099  0.00    0.4245788    0.3651057   -0.0517810
 H    6.4139356   13.7007377   16.6831728  0.00   -0.1642870   -0.2715311   -0.3610362
 H    4.7349821   15.4570672   13.3685440  0.00    0.4470227   -0.0780125    0.2353812
 H    6.2410393   14.3900450   13.5029751  0.00   -0.2714076    0.2755679    0.0688211
 H    6.1319009   15.9572240   14.4698958  0.00   -0.0197101   -0.7810825   -0.6974008
 H    6.4648674   12.4996350   21.5403162  0.00    0.2302542    0.3999228    0.0721825
 H    6.3920783   14.2987386   21.9708395  0.00    0.2347020   -0.3636901   -0.1383077
 H    8.0302917   13.4512785   21.8076746  0.00   -0.4384888   -0.0080279   -0.0645598
 H    7.7903256   15.4479364   18.6373840  0.00   -0.0651126   -0.0121932    0.4726948
 H    8.5406613   15.3640119   20.3277897  0.00   -0.3427981    0.0468375   -0.2721769
 H    6.8273973   16.0305296   20.1072114  0.00    0.3620749   -0.2458986   -0.1648211
 H    7.7862606   12.9989809   18.0648522  0.00    0.1344227   -0.1064649    0.4448185
 H    7.6587010   11.8177968   19.4847283  0.00    0.2001955    0.3384440   -0.2039295
 H    9.0033622   13.0901500   19.4571041  0.00   -0.3898163   -0.1853078   -0.1307528
 H    2.4127658    9.8355885   19.9221135  0.00    0.1368699    0.4223007    0.1877479
 H    2.1339557   11.4601400   20.7651403  0.00    0.3265382   -0.2627707   -0.1612024
 H    3.8559251   10.8262084   20.5229109  0.00   -0.4802071   -0.0988012   -0.0720557
 H    2.9960239   10.9301607   16.6364570  0.00    0.2651588   -0.1998480    0.3376691
 H    3.0188007    9.5732387   17.8953278  0.00    0.1704134    0.3596999   -0.2470690
 H    4.5229864   10.6204650   17.6358740  0.00   -0.4527727   -0.1182453   -0.0438155
 H    0.7449869   11.2499523   18.5037823  0.00    0.1888798    0.3535887   -0.1193909
 H    1.4782252   12.4189392   17.2688337  0.00   -0.0880954   -0.0649338    0.4329039
 H    1.2157100   12.9649261   19.0181512  0.00    0.0580654   -0.4171507   -0.2875984
 H    4.6398719   16.7545094   20.4461877  0.00   -0.1535861   -0.0867504    0.4372874
 H    4.5385818   15.4233661   21.7274329  0.00    0.0068664    0.4746574   -0.1855485
 H    4.0752500   17.1611187   22.1608603  0.00    0.1966761   -0.3837153   -0.2996136
 H    2.9872138   14.3136989   22.1631944  0.00   -0.4675787    0.0222121   -0.2329498
 H    1.9082115   14.0336230   20.6872643  0.00    0.1348244    0.1678578    0.4657326
 H    1.2382311   14.9167503   22.1689314  0.00    0.3602863   -0.2884664   -0.2143410
 H    0.9449590   16.7946370   22.1590164  0.00    0.2470968    0.3725913   -0.2470272
 H    1.2453143   17.7666618   20.6139150  0.00    0.1175942   -0.1234617    0.4632031
 H    2.3817925   17.9557553   22.0609226  0.00   -0.4709299   -0.1732965   -0.2347618
 H    5.4593839   11.8560500   19.7654019  0.00   -0.4181550    0.0954781   -0.2102822
 H    0.8100771   15.1225993   19.3040090  0.00   -0.4777436    0.6743081    0.1610116
 H    5.5884088   16.8532247   15.2746315  0.00    0.2982530    0.0202155    0.7925572
122
 Energy =   -4153.2241610160
Mn    4.0291687   14.9278263   18.3126685  0.00    0.0808580    0.0178527    0.1043763
Mn    2.6740130   17.6903188   16.9999173  0.00    0.1489504    0.1087760    0.0760597
 N    2.1906036   18.7142963   15.1445664  0.00    0.6082694    0.0877874   -0.0909617
 N    4.8047421   17.4776694   17.1103362  0.00    0.0585936   -0.0202526    0.3180427
 N    5.6518024   13.8743731   19.3391524  0.00    0.0642826    0.0504529    0.0347136
 N    4.6026963   15.3293924   16.2927247  0.00    0.1917706   -0.0575922    0.1969934
 N    3.7459250   12.7917253   18.7712530  0.00   -0.0157899   -0.1100456    0.0577943
 N    1.7596664   19.6792367   17.1553026  0.00    0.4981780    0.2899627    0.1968956
 N    2.6034462   16.0740524   19.4514460  0.00    0.1768445    0.4162699    0.0088608
 N    1.2569407   16.1972070   17.5828090  0.00   -0.2515472    0.2692878    0.1399807
 C    4.9482613   12.7590490   19.3151776  0.00    0.2419688    0.0294706    0.0464818
 C    5.1394821   16.5258684   16.2505811  0.00   -0.7824114    0.4114703   -0.2932633
 C    2.1752577   18.7169079   13.6823921  0.00    0.0059184   -0.0690589    0.0559939
 C    1.4309122   15.9176314   18.8502975  0.00    0.3930216   -1.0635411   -0.2647852
 C    4.8951083   14.3295444   15.2405873  0.00    0.0252128    0.2180829    0.0508061
 C    1.6319852   19.6786709   15.8473313  0.00   -1.0905328   -1.0302795    0.1230676
 C    3.5595442   13.6549831   14.8485298  0.00    0.0166419   -0.0105378   -0.0989896
 C    2.8920647   11.6036842   18.7183236  0.00    0.0420881    0.0759100    0.0175714
 C    5.8321504   13.2490465   15.8296420  0.00    0.0911584    0.0298132    0.0022145
 C    7.0035124   13.8663669   19.9144362  0.00   -0.0493798    0.0462543   -0.0521518
 C   -0.0166984   15.8844926   16.9041187  0.00   -0.0019827   -0.0330237    0.0046058
 C    2.6055815   20.0798864   13.1044450  0.00   -0.0000877    0.0099016    0.0419674
 C    5.6828105   18.6638367   17.2194033  0.00   -0.0379774   -0.0356862   -0.0322236
 C    1.2012896   20.7798517   17.9499145  0.00    0.0069707   -0.0812768   -0.0564618
 C    0.7926203   18.3495138   13.1147373  0.00   -0.0167998   -0.0177631   -0.0014086
 C    2.8194927   10.8822507   20.0773985  0.00    0.0060196    0.0131540    0.0524430
 C   -0.7712574   17.2087382   16.6370515  0.00   -0.0560769    0.0757124    0.0165405
 C    3.2059113   17.6667258   13.2599412  0.00   -0.0192624   -0.0277848   -0.0798088
 C    0.3176509   15.2078349   15.5646797  0.00   -0.0075388   -0.0753944   -0.0884379
 C    6.9705047   13.5051539   21.4109329  0.00   -0.0030408    0.0243612    0.0027224
 C    3.3923539   10.6116534   17.6468791  0.00    0.0173532   -0.0244883   -0.0243569
 C   -0.2788633   21.0559028   17.6217300  0.00    0.0071142   -0.0035447   -0.0473943
 C    2.6221654   16.0919649   20.9296221  0.00    0.0437726   -0.0086410   -0.0679692
 C    7.1190739   18.2584553   17.6174092  0.00    0.0844319   -0.1070471   -0.0157451
 C    7.5801618   15.2725898   19.7368575  0.00    0.0120016    0.0230044    0.0228252
 C   -0.9295599   14.9431742   17.7098975  0.00    0.0255626    0.0216778    0.0441073
 C    1.3160537   20.3776979   19.4265855  0.00   -0.0146887    0.0026741    0.1171327
 C    5.1078489   19.5392976   18.3375565  0.00   -0.0767289    0.1038870    0.0899035
 C    7.9259060   12.8735966   19.1804470  0.00   -0.0050303   -0.0227959   -0.0001274
 C    1.4852769   12.0885149   18.3508309  0.00   -0.0230843   -0.0415407   -0.0282985
 C    4.0745754   16.3753324   21.3475741  0.00    0.1437628   -0.0213747    0.0359087
 C    2.0266071   22.0664653   17.7060403  0.00   -0.0313201   -0.0229867   -0.0228462
 C    2.1523165   14.7421189   21.5317634  0.00   -0.0468571   -0.0638447    0.0233708
 C    5.7400262   19.4655306   15.8950679  0.00    0.0038778    0.0566495   -0.0332889
 C    1.7317663   17.2346112   21.4779693  0.00   -0.0877094    0.0649208   -0.0135354
 H   -0.8711250   20.1194231   17.7899075  0.00    0.0674762    0.2713251   -0.0715982
 H   -0.3730337   21.3760366   16.5548406  0.00   -0.1253356   -0.0185053    0.2474303
 H   -0.6651392   21.8675300   18.2926503  0.00    0.0354212   -0.2000119   -0.2149886
 H    1.9877953   21.0962916   19.9577284  0.00   -0.1769182   -0.2355602    0.0344902
 H    1.7462364   19.3478919   19.4843237  0.00   -0.1025236    0.2998280    0.0846838
 H    0.3010423   20.3909525   19.8937131  0.00    0.2780908   -0.0477045    0.0626231
 H    2.0981969   22.2605677   16.6054201  0.00    0.0083952    0.0387654    0.2552484
 H    3.0552439   21.9341393   18.1313353  0.00   -0.2425300    0.1008099   -0.1694035
 H    1.5251116   22.9352244   18.2092955  0.00    0.1877299   -0.1658580   -0.1263562
 H    0.6240648   19.9512749   15.5053394  0.00    0.0692918    0.8750078   -0.4401640
 H    2.6238842   20.0163347   11.9835938  0.00    0.0177965    0.0979713    0.2919170
 H    3.6279620   20.3369700   13.4812952  0.00   -0.2451255    0.0195344   -0.0979411
 H    1.8761344   20.8680143   13.4211118  0.00    0.2079406   -0.1033118   -0.1214541
 H    0.6146883   17.2547022   13.2633814  0.00   -0.0682763    0.2675786   -0.0536527
 H    0.7598492   18.5916737   12.0212223  0.00   -0.0904561   -0.1142570    0.2421470
 H    0.0031866   18.9355718   13.6519194  0.00    0.1146489   -0.1563478   -0.2111605
 H    3.2726615   17.6302116   12.1442781  0.00    0.0428556   -0.0782613    0.2115978
 H    2.8910211   16.6667427   13.6551854  0.00    0.1309893    0.2142230   -0.1182538
 H    4.2052769   17.9387428   13.6887102  0.00   -0.2622202   -0.1204420   -0.1687086
 H   -1.7966600   17.1445938   17.0790081  0.00    0.1876126    0.1466436   -0.1363943
 H   -0.8477554   17.3711140   15.5335858  0.00   -0.0690606    0.1352502    0.3312943
 H   -0.2087017   18.0528478   17.1031934  0.00   -0.2217721   -0.1375090   -0.1238781
 H   -0.1789533   15.7657231   14.7348421  0.00    0.1553150   -0.2956049    0.0804551
 H   -0.0489731   14.1525857   15.5841088  0.00    0.1786874    0.1690332   -0.1520252
 H    1.4225991   15.2225964   15.4181300  0.00   -0.3353473   -0.0031809   -0.0819259
 H   -0.3663300   14.0130166   17.9714012  0.00   -0.2533292    0.1637946   -0.0374752
 H   -1.8216000   14.6735064   17.0834484  0.00    0.2276184    0.0722940    0.2078454
 H   -1.2720509   15.4556711   18.6432082  0.00   -0.0079348   -0.2051439   -0.1739071
 H    7.7966731   18.3930232   16.7389752  0.00   -0.0105750   -0.1512307    0.2751994
 H    7.1220629   17.1957356   17.9447985  0.00    0.1149113    0.2425702   -0.0064678
 H    7.4658368   18.9139731   18.4583537  0.00    0.0827341   -0.2609084   -0.2635842
 H    4.5253958   18.8903806   19.0381289  0.00    0.1462598    0.2215894   -0.0625064
 H    4.4409542   20.3122097   17.8905216  0.00    0.0362539   -0.1542264    0.2659459
 H    5.9477211   20.0316112   18.8876108  0.00   -0.3187607    0.0119934   -0.0695372
 H    5.1047989   20.3799687   15.9858259  0.00    0.1364214   -0.2034674   -0.2026740
 H    5.3539257   18.8241646   15.0648327  0.00    0.1391845    0.2900112    0.1113789
 H    6.7972562   19.7598771   15.6811579  0.00   -0.3047236    0.0522479   -0.0695616
 C    5.5473038   15.0698268   14.0534792  0.00    0.0089532   -0.2502785   -0.1786185
 H    3.5908836   12.5688049   15.1137235  0.00   -0.1461992    0.2682855   -0.1549937
 H    3.3880846   13.7713502   13.7517622  0.00   -0.1045071   -0.0989717    0.2124547
 H    2.7322935   14.1487072   15.4146578  0.00    0.2135977   -0.2374625   -0.2161835
 H    6.5308839   12.8865729   15.0350041  0.00   -0.1286943   -0.0238947    0.2292646
 H    5.2192414   12.3910307   16.2082816  0.00    0.3112214    0.2335376   -0.0006552
 H    6.4104514   13.6932628   16.6740719  0.00   -0.0475721   -0.1803296   -0.2030674
 H    4.7473581   15.4551587   13.3741276  0.00    0.2984526   -0.0281404    0.0974398
 H    6.2347434   14.3959841   13.5032340  0.00   -0.1375910    0.0889355   -0.0514708
 H    6.1321888   15.9350273   14.4492629  0.00    0.0797153   -0.5457943   -0.5572000
 H    6.4710634   12.5102603   21.5428531  0.00    0.1483098    0.2478558    0.0792861
 H    6.3981767   14.2890592   21.9678154  0.00    0.1379697   -0.2278765   -0.0501948
 H    8.0185336   13.4509909   21.8063777  0.00   -0.2791830   -0.0092995   -0.0134803
 H    7.7887178   15.4480622   18.6500962  0.00   -0.0334561    0.0189569    0.2939204
 H    8.5317809   15.3656586   20.3204870  0.00   -0.1950255    0.0547099   -0.1744674
 H    6.8371609   16.0245889   20.1028527  0.00    0.2330786   -0.1184275   -0.1000524
 H    7.7902268   12.9957807   18.0763427  0.00    0.1076289   -0.0844165    0.2556742