154
 Energy =   -4685.8416896930
 C   14.6438385   -0.0346660   -4.6596282  0.00    0.0546842    0.0208545    0.0500722
 C   14.1844599    1.8665596   -0.2361619  0.00    0.0763855   -0.0903038   -0.3917582
 C   16.9183115    0.7732285   -4.4530178  0.00    0.1719080    0.2228987    0.7653193
 C   17.9417943   -0.3384344   -4.2864773  0.00   -2.2355703    2.4208187   -0.0604959
 H   18.0516358   -0.5346794   -3.3533496  0.00    0.4203593   -0.8162281    3.3304803
 H   18.7829099   -0.0575809   -4.6556212  0.00    3.0709500    1.0140141   -1.3311546
 H   17.6378491   -1.1245892   -4.7457785  0.00   -1.1182021   -2.8718046   -1.6819296
 C   17.4004107    2.0682100   -3.8296804  0.00   -0.9511228   -2.8850572   -0.2617786
 H   16.7561071    2.7603553   -3.9919636  0.00   -2.3637768    2.5299293   -0.6159424
 H   18.2412254    2.3161603   -4.2198611  0.00    3.0543970    0.8902608   -1.2451278
 H   17.5099514    1.9459977   -2.8850326  0.00    0.3951468   -0.2249009    3.4947342
 C   12.3654533   -0.8650054   -4.6749049  0.00   -0.7305712    0.3165647   -0.0603536
 C   11.8586774   -2.2817293   -4.5734779  0.00    1.1166162    3.0305385    0.1105215
 H   12.4527247   -2.8684663   -5.0463027  0.00    2.1800876   -2.1814819   -1.7337581
 H   10.9811485   -2.3361372   -4.9586498  0.00   -3.2146470   -0.2434826   -1.3763217
 H   11.8177501   -2.5417831   -3.6488651  0.00   -0.1425774   -1.0393224    3.3335565
 C   11.3908726    0.1045857   -4.0292787  0.00    2.0256484   -2.2711169   -0.0247334
 H   11.3257200   -0.0857837   -3.0903908  0.00   -0.2813816   -0.5221502    3.4766627
 H   10.5267353    0.0070507   -4.4352368  0.00   -3.1006049   -0.3669962   -1.1403260
 H   11.7033945    1.0035519   -4.1547475  0.00    1.1317902    3.2744444   -0.4401754
 C   14.4513901   -0.6729908   -7.0500480  0.00    0.5832038    1.5376114    2.5022162
 H   15.2499232   -0.6909702   -7.5832281  0.00    3.0150326   -0.0682863   -1.9810439
 H   13.7001038   -0.4535961   -7.6057675  0.00   -2.5961097    0.7096820   -2.1119090
 H   14.3140128   -1.5347059   -6.6516030  0.00   -0.5205982   -3.2102479    1.3393843
 C   14.5157552    1.4004339   -6.4985809  0.00   -1.2046749    4.5666617   -1.2384815
 H   13.6094799    1.4732993   -6.8052250  0.00   -3.5152787    1.1991965   -1.6007069
 H   15.1150551    1.6240473   -7.2154104  0.00    1.8791119    0.8737956   -2.9055000
 H   14.6549561    2.0034791   -5.7645490  0.00    0.1879497    2.8389134    2.2719364
 C   15.6653652   -3.4559084   -1.5980376  0.00    0.8887773    0.0375363    0.3752215
 C   14.3600560   -3.9089170   -2.2494239  0.00    2.9905937    0.9105459    1.8309942
 H   13.6639915   -3.9307742   -1.5877697  0.00   -2.6055450   -0.1182711    2.3198354
 H   14.4765181   -4.7862611   -2.6220740  0.00    0.4016215   -3.2043898   -1.3642043
 H   14.1199092   -3.2938595   -2.9476419  0.00   -0.8459777    2.2474696   -2.5075674
 C   16.7720567   -3.4948049   -2.6358480  0.00   -2.5741040    0.6141439    1.5121180
 H   16.5559848   -2.8990194   -3.3558540  0.00   -0.7282207    2.2143880   -2.8009257
 H   16.8599300   -4.3890708   -2.9751899  0.00    0.3100252   -3.2335427   -1.2380030
 H   17.5987274   -3.2233524   -2.2313924  0.00    2.9439837    1.0563653    1.3379381
 C   12.7115295    0.0267927    0.2346593  0.00   -1.9988728    0.3147380   -1.3679359
 C   11.4587478    0.5752073   -0.4266844  0.00    1.6552172    0.0728664    1.2691150
 H   11.1606549    1.4592404   -0.2001016  0.00   -0.8741286    3.3784303    0.9731394
 H   10.7875672   -0.0635369   -0.1778502  0.00   -2.8562829   -1.8347093    0.7887181
 H   11.6141126    0.5230764   -1.3723389  0.00    0.3093705   -0.0130410   -3.2934358
 C   12.2820941   -1.3097880   -0.3268201  0.00    2.2749791    1.6086795    1.2105558
 H   11.8749279   -1.1798198   -1.1870707  0.00   -1.2477885    0.1076722   -3.0573500
 H   11.6492260   -1.7180245    0.2679674  0.00   -2.2529261   -1.5365075    2.0756301
 H   13.0485776   -1.8801910   -0.4182296  0.00    2.7228629   -2.3495342   -0.3414897
 C   13.5309778    2.8621207   -2.4034425  0.00    2.0057636   -0.2233431    2.8655482
 H   14.0115723    2.4994788   -3.1504957  0.00    1.7238606   -1.3531919   -2.8393648
 H   13.2848123    3.7709579   -2.5920215  0.00   -0.9006304    3.3654783   -0.6538003
 H   12.7386137    2.3408377   -2.2489230  0.00   -2.8006329   -1.8546432    0.5378790
 C   15.4152875    3.8273637   -1.2041005  0.00   -2.3259622   -2.5036631   -0.2299096
 H   15.0227167    4.6934267   -1.0693654  0.00   -1.1145484    3.0273628    0.2358444
 H   15.8848978    3.8156125   -2.0410604  0.00    1.7664035   -0.1356109   -3.0877485
 H   16.0293470    3.6405197   -0.4908563  0.00    2.2192990   -0.6523868    2.5360088
Mn   14.6922892   -0.4662874   -2.1284629  0.00    0.0666916   -0.0151226    0.1021692
 N   15.6309080    0.3849691   -3.8722547  0.00    0.0798351    0.1094355   -0.3708794
 N   13.7028122   -0.7618299   -4.0630876  0.00   -0.3530215    0.1264975   -0.7237822
 N   13.6713644    0.6961407   -0.6711708  0.00    0.9493202    0.1077733    1.0169438
 N   15.5704199   -2.0908898   -1.0395634  0.00    0.0963997    0.0376015    0.0956818
 N   14.5875635    0.3129343   -6.0220047  0.00    0.9468087   -8.6057166    3.0849068
 N   14.3737486    2.8233417   -1.2198780  0.00   -0.1303954   -0.1269222    0.1182051
 C   11.9394455   -0.3784819   -6.0725491  0.00    0.6049057    0.0160416   -1.2869637
 H   11.8384348   -1.2730933   -6.7718813  0.00    0.0389635    0.5418777    0.1231186
 H   12.7267482    0.3370465   -6.4821487  0.00   -1.1817124   -0.4483728    0.2417561
 H   10.9377969    0.1607550   -5.9982363  0.00    0.6443459   -0.4127148   -0.4437328
 C   16.9950300    1.2206269   -5.8380408  0.00    0.2141689    0.0992582   -1.8921969
 H   17.4149524    0.3650971   -6.4636077  0.00   -0.2461963    0.4801727   -0.0559435
 H   17.7333738    2.0892221   -5.8378163  0.00   -0.3452391   -0.5667666   -0.5249685
 H   16.0032840    1.5650546   -6.2823328  0.00    2.2581468   -0.0455637    0.5706785
 C   16.4150866   -4.3169813   -0.5645635  0.00    0.3180313   -1.5429690   -0.1541657
 H   17.4855448   -4.4880057   -0.9173643  0.00   -0.6006851   -0.1173702    0.3078804
 H   15.8871197   -5.3210495   -0.4518844  0.00    0.4608514    0.3145155   -0.1172581
 H   16.4275835   -3.7793059    0.4405969  0.00    0.7007222   -1.0292835   -1.2208076
 C   12.2276960    0.1594295    1.6906503  0.00    1.2830211    0.0598231   -1.3506608
 H   11.8384784   -0.8482094    2.0550295  0.00    0.1413897    0.9289408   -0.4000191
 H   11.3910072    0.9318840    1.7441704  0.00    0.5376512   -0.3198306    0.0005803
 H   13.0954399    0.4927994    2.3505619  0.00   -0.1652837   -0.3605758   -1.3764732
 C   15.4497447    0.0346660    4.6596282  0.00    0.0246935   -0.0711819    0.1520084
 C   15.9091231   -1.8665596    0.2361619  0.00   -0.4689152    0.8315591   -0.2549272
 C   13.1504222   -0.7598208    4.2757679  0.00   -0.4481477   -0.4062403    0.7919638
 C   12.1662442    0.3704145    4.0207994  0.00    1.7029048   -2.2206453    1.6192258
 H   12.1696958    0.5927643    3.0870686  0.00   -0.5577142    1.1681764   -1.0723522
 H   11.2843089    0.0920131    4.2802301  0.00   -3.2233403   -0.9793800    1.0078163
 H   12.4224787    1.1397378    4.5344774  0.00    0.9214804    2.7828495    1.9494482
 C   12.7310281   -2.0308585    3.5640672  0.00    0.9935985    2.6616618    1.2650792
 H   13.3438819   -2.7362144    3.7818085  0.00    2.2314091   -2.5725768    0.8115744
 H   11.8472703   -2.2769308    3.8453330  0.00   -3.2508608   -0.9301674    1.0062870
 H   12.7353167   -1.8822082    2.6168717  0.00    0.1773167    0.1708047   -3.3063998
 C   17.6522147    0.8801173    4.3199769  0.00    3.1965209   -0.0484197    2.3963142
 C   18.1589907    2.2968412    4.2185500  0.00   -0.9928809   -2.8769347   -0.1878562
 H   17.5649434    2.8835782    4.6913747  0.00   -2.1695544    2.1592597    1.7288864
 H   19.0365195    2.3512492    4.6037218  0.00    3.2026928    0.2237782    1.3422753
 H   18.1999180    2.5568950    3.2939371  0.00    0.1306852    1.0625081   -3.3227106
 C   18.6267955   -0.0894738    3.6743507  0.00   -1.5851250    2.1280371    1.0243224
 H   18.6919480    0.1008956    2.7354629  0.00    0.8542946    0.3141802   -2.0336775
 H   19.4909326    0.0080612    4.0803088  0.00    3.1097358    0.3447248    1.5872969
 H   18.3142735   -0.9884400    3.7998196  0.00   -1.1277008   -3.2609535    0.4390354
 C   15.6421931    0.6729908    7.0500480  0.00   -1.5816816   -2.3073283   -1.6963620
 H   14.8436598    0.6909702    7.5832281  0.00   -3.0582520    0.1161265    2.0458057
 H   16.3934794    0.4535961    7.6057675  0.00    2.4516179   -0.7005399    2.3592664
 H   15.7795703    1.5347059    6.6516030  0.00    0.3024698    3.1767785   -1.2860384
 C   15.4703588   -1.6898216    6.4274620  0.00    0.4003921    3.3011103   -0.7254740
 H   16.3016940   -1.9213202    6.8469438  0.00    3.2071953   -0.8908878    1.5621821
 H   14.7503698   -1.8214350    7.0497976  0.00   -2.3868160   -0.6063026    2.3145322
 H   15.3341853   -2.2468282    5.6573686  0.00   -0.4287311   -1.9984577   -2.7185816
 C   14.4282180    3.4559084    1.5980376  0.00    0.5146185    0.8869676    0.9010164
 C   15.7335271    3.9089170    2.2494239  0.00   -2.3654306   -2.1308936   -0.3337062
 H   16.4295917    3.9307742    1.5877697  0.00    2.5351750    0.0531152   -2.3446119
 H   15.6170649    4.7862611    2.6220740  0.00   -0.3121935    2.9567074    1.5281894
 H   15.9736739    3.2938595    2.9476419  0.00    1.0637661   -2.2353982    2.5946296
 C   13.3215265    3.4948049    2.6358480  0.00    2.3875470   -0.4692964   -1.9587868
 H   13.5375984    2.8990194    3.3558540  0.00    0.6848035   -2.2603816    2.6761836
 H   13.2336532    4.3890708    2.9751899  0.00   -0.3505815    3.0540641    1.3443965
 H   12.4948557    3.2233524    2.2313924  0.00   -3.0703742   -0.9874213   -1.4646463
 C   17.4951902    0.0250765    0.1337956  0.00   -2.7967962   -8.7864800    2.1030729
 C   18.3956578   -1.2004413   -0.2872870  0.00    1.9668879   -2.5429251    0.4412213
 H   18.6790111   -1.2249535   -1.3912387  0.00   -0.1935529   -1.2148610    0.9705338
 H   18.1756332   -2.2596775    0.0721666  0.00    0.0187934    0.3993206    0.1020489
 C   18.1032453    0.4552958    1.1567512  0.00    1.8356231    4.0809798    5.6752500
 H   19.2223924    0.2937930    1.3017546  0.00   -0.5638637    0.4090399   -0.1705439
 H   17.5468042    0.1240678    2.0949732  0.00    0.4075297    0.4431684   -1.0376814
 C   16.5626054   -2.8621207    2.4034425  0.00   -2.0305572    0.2889749   -2.7488112
 H   16.0820108   -2.4994788    3.1504957  0.00   -1.7207390    1.3582451    2.8171110
 H   16.8087709   -3.7709579    2.5920215  0.00    0.9014614   -3.3801589    0.6339147
 H   17.3549694   -2.3408377    2.2489230  0.00    2.7836813    1.8395780   -0.5453095
 C   14.6782957   -3.8273637    1.2041005  0.00    1.9814785    2.5186834    0.3424806
 H   15.0708665   -4.6934267    1.0693654  0.00    1.2446503   -3.0615498   -0.3518596
 H   14.2086853   -3.8156125    2.0410604  0.00   -1.7540708    0.1222835    3.0447010
 H   14.0642361   -3.6405197    0.4908563  0.00   -2.2063823    0.6516821   -2.5429370
Mn   15.4012940    0.4662874    2.1284629  0.00   -0.1866656    0.0622085   -0.0593549
 N   14.4626751   -0.3849691    3.8722547  0.00    0.4463713    0.1006678   -0.1433051
 N   16.3907710    0.7618299    4.0630876  0.00   -3.6786153   -0.3912036   -1.7398330
 N   16.4222188   -0.6961407    0.6711708  0.00   -2.7604057   -0.5487345    0.2581978
 N   14.5231632    2.0908898    1.0395634  0.00    0.0000570    0.7126001   -0.3463949
 N   15.5060197   -0.3129343    6.0220047  0.00   -0.6836255   -0.2566107   -0.5525871
 N   15.7198346   -2.8233417    1.2198780  0.00   -0.5867572    0.9576876    0.9285421
 C   14.3202969    4.8752967    1.0104263  0.00   -0.9478502    0.5662659   -1.7931467
 H   13.6102825    5.4979614    1.6489925  0.00    0.4644741   -0.2344242   -0.4518267
 H   13.9198991    4.8159464   -0.0552930  0.00   -0.1743596    0.4484292    0.7767380
 H   15.3508197    5.3626981    1.0025944  0.00   -0.8472949    0.0454104   -0.4291385
 C   17.8686833    0.5168172   -0.9138897  0.00    1.0418268    6.6140222   -8.7744505
 H   16.9190841    0.7952818   -1.4798562  0.00    0.4694685    0.1897682   -0.2377065
 H   18.5728071   -0.0498242   -1.6086748  0.00   -0.5661906    1.7727620   -0.0344307
 C   17.8608378    0.4819285    5.7929057  0.00    0.6882654    0.1966407    0.8624842
 H   18.6422447    1.1651876    6.2642429  0.00   -0.2070520   -0.4444167   -0.1159707
 H   18.2188443   -0.5990311    5.8472765  0.00   -0.1945038    0.4881139    0.2073971
 H   16.8758593    0.5848659    6.3575471  0.00    2.8285441   -0.0075428   -1.1854392
 C   12.9843321   -1.1685469    5.7512185  0.00   -0.2574922    0.0785353    0.4880403
 H   13.4760966   -0.3869587    6.4197141  0.00   -0.5377170   -0.4902500   -0.2700079
 H   13.4791322   -2.1810910    5.9230487  0.00   -0.6400527    0.6153258   -0.0598900
 H   11.8748177   -1.2401541    6.0031088  0.00    0.5213449   -0.0137849   -0.1322089
 H   19.2590054   -0.7657137    0.3170656  0.00    0.1723390   -1.1093761   -0.9159965
 H   18.3820235    1.4648492   -0.5433275  0.00   -0.1038960    0.1472978   -1.0244835
 H   17.9005155    1.5606174    0.9650120  0.00    0.3514918    0.1034666    0.9605595
154
 Energy =   -4686.0608249580
 C   14.6439505   -0.0346232   -4.6595256  0.00    0.0404964   -0.0791512    0.1453383
 C   14.1846164    1.8663748   -0.2369638  0.00    0.0844086   -0.0727029   -0.3218217
 C   16.9186635    0.7736848   -4.4514510  0.00    0.1043103    0.2220267    0.6366853
 C   17.9372180   -0.3334788   -4.2866011  0.00   -1.9735722    2.1280587   -0.0495723
 H   18.0524964   -0.5363502   -3.3465317  0.00    0.3893204   -0.7603492    3.0337325
 H   18.7891965   -0.0555051   -4.6583461  0.00    2.7868558    0.9138683   -1.2041917
 H   17.6355601   -1.1304680   -4.7492214  0.00   -1.0087846   -2.6025887   -1.5229782
 C   17.3984639    2.0623041   -3.8302162  0.00   -0.8360550   -2.5118962   -0.1942456
 H   16.7512684    2.7655344   -3.9932243  0.00   -2.1293508    2.2882684   -0.5560499
 H   18.2474781    2.3179827   -4.2224099  0.00    2.7587945    0.8081580   -1.1041211
 H   17.5107604    1.9455373   -2.8778785  0.00    0.3666730   -0.1850584    3.2406131
 C   12.3639579   -0.8643571   -4.6750284  0.00   -0.6408390    0.3359710   -0.1033309
 C   11.8609632   -2.2755253   -4.5732517  0.00    0.9808423    2.6574021    0.0931390
 H   12.4571875   -2.8729318   -5.0498518  0.00    1.9717764   -1.9817347   -1.5699382
 H   10.9745679   -2.3366354   -4.9614672  0.00   -2.9141157   -0.2317099   -1.2424332
 H   11.8174582   -2.5439105   -3.6420410  0.00   -0.1312321   -0.9609135    3.0498417
 C   11.3950194    0.0999367   -4.0293293  0.00    1.7729101   -1.9778834    0.0149736
 H   11.3251441   -0.0868524   -3.0832738  0.00   -0.2657731   -0.4771374    3.2529443
 H   10.5203883    0.0062997   -4.4375711  0.00   -2.8017975   -0.3271416   -0.9922327
 H   11.7057115    1.0102552   -4.1556485  0.00    1.0135154    2.9554249   -0.3923227
 C   14.4525840   -0.6698430   -7.0449257  0.00    0.5270315    1.1955048    2.1645544
 H   15.2560953   -0.6911098   -7.5872834  0.00    2.7543361   -0.0703363   -1.8156286
 H   13.6947894   -0.4521431   -7.6100907  0.00   -2.3265319    0.6344893   -1.9106020
 H   14.3129472   -1.5412773   -6.6488612  0.00   -0.4817631   -2.9825891    1.1896719
 C   14.5132893    1.4097823   -6.5011161  0.00   -1.0829873    3.2884644   -0.7168207
 H   13.6022840    1.4757543   -6.8085017  0.00   -3.3446452    1.1131556   -1.5086152
 H   15.1189020    1.6258362   -7.2213581  0.00    1.7620683    0.8032256   -2.7576281
 H   14.6553410    2.0092907   -5.7598980  0.00    0.1796756    2.7198896    2.1897197
 C   15.6671846   -3.4558315   -1.5972694  0.00    0.8629262    0.0417733    0.4258973
 C   14.3661779   -3.9070529   -2.2456757  0.00    2.6702675    0.8072927    1.6467028
 H   13.6586577   -3.9310162   -1.5830208  0.00   -2.3861974   -0.1132249    2.1053918
 H   14.4773402   -4.7928206   -2.6248666  0.00    0.3585070   -2.9062675   -1.2387385
 H   14.1181775   -3.2892586   -2.9527751  0.00   -0.7615152    2.0266457   -2.2584847
 C   16.7667873   -3.4935477   -2.6327525  0.00   -2.2501866    0.5626060    1.2997467
 H   16.5544940   -2.8944863   -3.3615876  0.00   -0.6681646    2.0470840   -2.6007243
 H   16.8605646   -4.3956900   -2.9777241  0.00    0.2831865   -2.9209132   -1.1236185
 H   17.6047539   -3.2211899   -2.2286535  0.00    2.6616817    0.9606654    1.1872464
 C   12.7074378    0.0274371    0.2318591  0.00   -1.8522770    0.3523261   -1.2897896
 C   11.4621363    0.5753566   -0.4240864  0.00    1.3552500    0.1301172    1.0672645
 H   11.1588656    1.4661565   -0.1981094  0.00   -0.7981134    3.1375247    0.9078758
 H   10.7817202   -0.0672925   -0.1762356  0.00   -2.6538851   -1.6334705    0.7097394
 H   11.6147460    0.5230499   -1.3790808  0.00    0.2514853    0.0100876   -3.0017637
 C   12.2867512   -1.3064948   -0.3243420  0.00    2.0285656    1.3409025    1.0552868
 H   11.8723736   -1.1795992   -1.1933293  0.00   -1.0988131    0.0468561   -2.7471153
 H   11.6446141   -1.7211697    0.2722164  0.00   -2.0297476   -1.3987958    1.8611748
 H   13.0541516   -1.8850005   -0.4189286  0.00    2.5642384   -2.2247543   -0.3186420
 C   13.5350839    2.8616636   -2.3975764  0.00    1.7741634   -0.2029647    2.5287730
 H   14.0151013    2.4967088   -3.1563080  0.00    1.5575279   -1.2267141   -2.5868535
 H   13.2829688    3.7778475   -2.5933597  0.00   -0.8169150    3.0492115   -0.5912973
 H   12.7328808    2.3370413   -2.2478218  0.00   -2.5430900   -1.6830649    0.4836201
 C   15.4105262    3.8222386   -1.2045710  0.00   -2.0365129   -2.2358780   -0.2093777
 H   15.0204353    4.6996240   -1.0688825  0.00   -0.9822594    2.7454602    0.1846321
 H   15.8885140    3.8153350   -2.0473812  0.00    1.6156670   -0.1293442   -2.8168339
 H   16.0338903    3.6391842   -0.4856647  0.00    2.0133298   -0.5874876    2.2939357
Mn   14.6924258   -0.4663182   -2.1282537  0.00    0.0563076   -0.0165380    0.0889375
 N   15.6310716    0.3851932   -3.8730139  0.00    0.0658077    0.1175843   -0.3354013
 N   13.7020896   -0.7615708   -4.0645692  0.00   -0.3427729    0.1208303   -0.6581767
 N   13.6733078    0.6963614   -0.6690890  0.00    0.9182829    0.0700243    0.9829918
 N   15.5706173   -2.0908128   -1.0393675  0.00    0.1049174    0.0425807    0.0996769
 N   14.5895018    0.2953179   -6.0156896  0.00    0.8405403   -6.7408158    2.3484070
 N   14.3734818    2.8230820   -1.2196359  0.00   -0.1341982   -0.1644809    0.1561669
 C   11.9406838   -0.3784488   -6.0751836  0.00    0.5497827    0.0082955   -1.2242609
 H   11.8385146   -1.2719838   -6.7716292  0.00    0.0404921    0.5193409    0.1044172
 H   12.7243293    0.3361289   -6.4816537  0.00   -1.1377878   -0.4240130    0.2233221
 H   10.9391161    0.1599104   -5.9991446  0.00    0.6388094   -0.4087117   -0.4443849
 C   16.9954686    1.2208302   -5.8419142  0.00    0.2425682    0.0769550   -1.7571181
 H   17.4144485    0.3660801   -6.4637221  0.00   -0.2350371    0.4559883   -0.0757395
 H   17.7326672    2.0880619   -5.8388908  0.00   -0.3292350   -0.5504147   -0.5261181
 H   16.0079068    1.5649615   -6.2811644  0.00    2.1713408   -0.0468635    0.5445236
 C   16.4157376   -4.3201399   -0.5648791  0.00    0.3083923   -1.4665775   -0.1384991
 H   17.4843151   -4.4882460   -0.9167341  0.00   -0.5734356   -0.1268896    0.2967884
 H   15.8880631   -5.3204056   -0.4521244  0.00    0.4434354    0.2797935   -0.1157491
 H   16.4290179   -3.7814130    0.4380978  0.00    0.6955327   -1.0201410   -1.2024348
 C   12.2303225    0.1595520    1.6878855  0.00    1.2177264    0.0629069   -1.3100042
 H   11.8387679   -0.8463076    2.0542107  0.00    0.1463844    0.9236481   -0.4030435
 H   11.3921079    0.9312294    1.7441717  0.00    0.5456195   -0.3198114   -0.0044319
 H   13.0951017    0.4920613    2.3477443  0.00   -0.1405511   -0.3522808   -1.3528751
 C   15.4497953    0.0345202    4.6599394  0.00   -0.0479230   -0.1004086    0.1239089
 C   15.9081633   -1.8648573    0.2356401  0.00   -0.5064275    0.7341250   -0.2272117
 C   13.1495048   -0.7606524    4.2773892  0.00   -0.3626393   -0.3744814    0.8013356
 C   12.1697303    0.3658687    4.0241142  0.00    1.4908433   -1.9751434    1.5838415
 H   12.1685542    0.5951558    3.0848735  0.00   -0.5542032    1.1118233   -0.8603609
 H   11.2777106    0.0900083    4.2822933  0.00   -2.9715509   -0.8930294    0.9320527
 H   12.4243652    1.1454346    4.5384681  0.00    0.8426661    2.5614459    1.8035791
 C   12.7330620   -2.0254098    3.5666569  0.00    0.8715210    2.3260576    1.1262174
 H   13.3484498   -2.7414806    3.7834699  0.00    2.0253934   -2.3446735    0.7378780
 H   11.8406155   -2.2788348    3.8473929  0.00   -2.9463836   -0.8515294    0.9043382
 H   12.7356797   -1.8818585    2.6101033  0.00    0.1773363    0.1223429   -3.0188531
 C   17.6587583    0.8800181    4.3248825  0.00    2.6383898   -0.1122238    2.2436083
 C   18.1569583    2.2909518    4.2181655  0.00   -0.8592766   -2.5068795   -0.1514712
 H   17.5605022    2.8879983    4.6949140  0.00   -1.9601518    1.9604676    1.5655012
 H   19.0430758    2.3517071    4.6064697  0.00    2.9117252    0.2227164    1.2099563
 H   18.2001856    2.5590700    3.2871354  0.00    0.1181566    0.9802954   -3.0463883
 C   18.6235506   -0.0851176    3.6764477  0.00   -1.3541715    1.8328417    1.0062221
 H   18.6936969    0.1015387    2.7312999  0.00    0.8460993    0.2728745   -1.8073682
 H   19.4972986    0.0087668    4.0835582  0.00    2.8494127    0.2998341    1.4572402
 H   18.3119651   -0.9951155    3.8007184  0.00   -1.0134586   -2.9502316    0.3941449
 C   15.6389553    0.6682675    7.0465755  0.00   -1.4178162   -2.0224221   -1.4927101
 H   14.8373994    0.6912079    7.5874161  0.00   -2.8631064    0.1120699    1.9172337
 H   16.3984981    0.4521619    7.6105972  0.00    2.1778441   -0.6224778    2.1508969
 H   15.7801895    1.5412089    6.6489705  0.00    0.2537579    2.8621138   -1.1399279
 C   15.4711784   -1.6830640    6.4259769  0.00    0.3740757    2.8993335   -0.6467090
 H   16.3082594   -1.9231440    6.8501417  0.00    2.9414465   -0.8177060    1.4298733
 H   14.7454837   -1.8226762    7.0545357  0.00   -2.1463662   -0.5658454    2.1138811
 H   15.3333076   -2.2509192    5.6518035  0.00   -0.3799175   -1.8112478   -2.4466948
 C   14.4292716    3.4577242    1.5998821  0.00    0.4886096    0.8467885    0.7806336
 C   15.7286850    3.9045549    2.2487409  0.00   -2.0504512   -1.8931250   -0.2658843
 H   16.4347816    3.9308829    1.5829702  0.00    2.2914274    0.0485198   -2.1023287
 H   15.6164260    4.7923137    2.6252024  0.00   -0.2615654    2.6366591    1.3943936
 H   15.9758517    3.2892834    2.9529534  0.00    1.0094494   -2.0989078    2.4380891
 C   13.3264141    3.4938443    2.6318383  0.00    2.0914431   -0.4317254   -1.7111933
 H   13.5390004    2.8943922    3.3613324  0.00    0.6154461   -2.0772731    2.4562700
 H   13.2329357    4.3953227    2.9779421  0.00   -0.3274303    2.7497134    1.2372193
 H   12.4885705    3.2213312    2.2283942  0.00   -2.7923980   -0.8939501   -1.3260500
 C   17.4894650    0.0070898    0.1381008  0.00   -1.7351454   -7.6843584    1.1151201
 C   18.3996843   -1.2056469   -0.2863838  0.00    1.8411312   -2.3448467    0.4628020
 H   18.6786149   -1.2274405   -1.3892519  0.00   -0.1798067   -1.1869076    0.9372163
 H   18.1756717   -2.2588601    0.0723756  0.00    0.0342696    0.3449907    0.1029434
 C   18.1070031    0.4636499    1.1683690  0.00    1.4004022    3.7005280    4.7492013
 H   19.2212382    0.2946303    1.3014056  0.00   -0.5096181    0.4097593   -0.1466199
 H   17.5476385    0.1249750    2.0928491  0.00    0.3646949    0.4530862   -0.9353633
 C   16.5584486   -2.8615292    2.3978155  0.00   -1.7992747    0.2670781   -2.4103529
 H   16.0784883   -2.4966984    3.1562626  0.00   -1.5531847    1.2342837    2.5766507
 H   16.8106162   -3.7778774    2.5933192  0.00    0.8162070   -3.0609488    0.5683437
 H   17.3606679   -2.3370720    2.2478067  0.00    2.5277484    1.6688164   -0.4914120
 C   14.6823519   -3.8222077    1.2048016  0.00    1.7215435    2.2380619    0.3168489
 H   15.0734143   -4.6996939    1.0686451  0.00    1.1063939   -2.7621004   -0.2997756
 H   14.2050945   -3.8153622    2.0472932  0.00   -1.6158292    0.1125482    2.7894383
 H   14.0597194   -3.6391856    0.4856507  0.00   -2.0057539    0.5886188   -2.3064227
Mn   15.4009119    0.4664147    2.1283415  0.00   -0.1996363    0.0677450   -0.0538767
 N   14.4635889   -0.3847630    3.8719614  0.00    0.3790588    0.0670109   -0.1282218
 N   16.3832407    0.7610290    4.0595261  0.00   -3.0936342   -0.2898456   -1.6089543
 N   16.4165681   -0.6972640    0.6716994  0.00   -2.7402541   -0.5137834    0.2876590
 N   14.5231635    2.0923486    1.0388544  0.00    0.0030471    0.7002770   -0.3467781
 N   15.5046202   -0.3134597    6.0208736  0.00   -0.6551784   -0.2037745   -0.5671325
 N   15.7186334   -2.8213812    1.2217788  0.00   -0.5887530    0.9772629    0.8095387
 C   14.3183568    4.8764560    1.0067557  0.00   -0.8994402    0.5500095   -1.6899062
 H   13.6112335    5.4974815    1.6480678  0.00    0.4496883   -0.2240603   -0.4513716
 H   13.9195424    4.8168644   -0.0537028  0.00   -0.1955729    0.4400967    0.7170588
 H   15.3490854    5.3627911    1.0017161  0.00   -0.8426212    0.0456866   -0.4342912
 C   17.8708161    0.5303566   -0.9318516  0.00    0.5374213    5.7038607   -6.9669193
 H   16.9200453    0.7956703   -1.4803427  0.00    0.3966856    0.2431514   -0.3086610
 H   18.5716482   -0.0461952   -1.6087452  0.00   -0.5330328    1.7121512   -0.0864033
 C   17.8622468    0.4823309    5.7946714  0.00    0.7008589    0.1713602    0.8176046
 H   18.6418209    1.1642777    6.2640056  0.00   -0.1853407   -0.4261042   -0.0950985
 H   18.2184461   -0.5980320    5.8477011  0.00   -0.1872919    0.4776181    0.2113833
 H   16.8816496    0.5848503    6.3551205  0.00    2.7265921    0.0036250   -1.1212439
 C   12.9838050   -1.1683861    5.7522176  0.00   -0.2500486    0.0681907    0.4747243
 H   13.4749959   -0.3879623    6.4191615  0.00   -0.5295861   -0.4725315   -0.2541208
 H   13.4778220   -2.1798314    5.9229262  0.00   -0.6296411    0.5989902   -0.0534304
 H   11.8758850   -1.2401823    6.0028382  0.00    0.4996812   -0.0133196   -0.1246716
 H   19.2593583   -0.7679847    0.3151905  0.00    0.2051666   -1.0938359   -0.8880240
 H   18.3818110    1.4651507   -0.5454246  0.00   -0.0924564    0.1811187   -1.0093217
 H   17.9012351    1.5608292    0.9669785  0.00    0.3369041    0.1327814    0.9511418
154
 Energy =   -4686.4280754030
 C   14.6440586   -0.0359159   -4.6579001  0.00    0.0306766   -0.1793272    0.2224394
 C   14.1851600    1.8661147   -0.2381828  0.00    0.0973633   -0.0405606   -0.1806716
 C   16.9186784    0.7749273   -4.4489561  0.00   -0.0085796    0.2159207    0.3908124
 C   17.9283272   -0.3239788   -4.2867873  0.00   -1.4486551    1.5439228   -0.0129261
 H   18.0544255   -0.5401576   -3.3319664  0.00    0.3211725   -0.6418351    2.4550056
 H   18.8024792   -0.0512090   -4.6640494  0.00    2.2370619    0.7317185   -0.9622247
 H   17.6308081   -1.1428392   -4.7564485  0.00   -0.8093257   -2.0860731   -1.2242178
 C   17.3947325    2.0513241   -3.8307373  0.00   -0.6046173   -1.7906928   -0.0230576
 H   16.7412674    2.7763692   -3.9958470  0.00   -1.6978085    1.8332289   -0.4453294
 H   18.2605056    2.3218366   -4.2274308  0.00    2.2035538    0.6448427   -0.8431130
 H   17.5125840    1.9448328   -2.8617873  0.00    0.3052853   -0.1143679    2.7158699
 C   12.3611106   -0.8623009   -4.6759740  0.00   -0.4748665    0.3548882   -0.1844086
 C   11.8653349   -2.2637256   -4.5728744  0.00    0.7115219    1.9154409    0.0833387
 H   12.4665233   -2.8823958   -5.0573021  0.00    1.5825518   -1.5946625   -1.2609359
 H   10.9607084   -2.3378396   -4.9673273  0.00   -2.3425998   -0.1992092   -0.9892853
 H   11.8168156   -2.5486555   -3.6272747  0.00   -0.1047943   -0.7940857    2.4880996
 C   11.4028595    0.0912865   -4.0289083  0.00    1.2757891   -1.4199412    0.1495649
 H   11.3237804   -0.0891567   -3.0668557  0.00   -0.2254421   -0.3882156    2.7664699
 H   10.5071467    0.0047962   -4.4419022  0.00   -2.2413498   -0.2606886   -0.7207997
 H   11.7104157    1.0241911   -4.1574516  0.00    0.8004951    2.3609256   -0.3037169
 C   14.4550754   -0.6660108   -7.0356003  0.00    0.4294253    0.6198993    1.4966516
 H   15.2693931   -0.6915230   -7.5961032  0.00    2.2583120   -0.0676883   -1.4930934
 H   13.6839758   -0.4492078   -7.6191411  0.00   -1.8176799    0.4968244   -1.5310393
 H   14.3105641   -1.5561396   -6.6434318  0.00   -0.4057285   -2.5419911    0.9422637
 C   14.5082238    1.4174668   -6.5007318  0.00   -0.9063669    2.4210652   -0.4373314
 H   13.5849006    1.4812925   -6.8162143  0.00   -2.8780915    0.9873446   -1.3071292
 H   15.1278308    1.6297604   -7.2356297  0.00    1.3742573    0.6470970   -2.2816838
 H   14.6562830    2.0235947   -5.7482667  0.00    0.1324406    2.3850378    1.8696262
 C   15.6718235   -3.4555605   -1.5944422  0.00    0.7944894    0.0487224    0.5014542
 C   14.3784969   -3.9033828   -2.2379663  0.00    2.0192780    0.5920452    1.2893576
 H   13.6470822   -3.9316107   -1.5729846  0.00   -1.9467251   -0.1000113    1.6922301
 H   14.4789931   -4.8066563   -2.6307773  0.00    0.2865891   -2.3294431   -0.9912209
 H   14.1146058   -3.2797198   -2.9633793  0.00   -0.5889534    1.6117832   -1.7789646
 C   16.7568635   -3.4908171   -2.6272343  0.00   -1.6231417    0.4787835    0.8531647
 H   16.5512412   -2.8843793   -3.3745327  0.00   -0.5550084    1.7070439   -2.1848794