130
 Energy =   -4373.9999134440
Mn    9.6688367   -1.5399000   17.5873855  0.00    0.0350563   -0.0691172   -0.0074286
 N    9.5455904    0.4311815   16.8186349  0.00    0.1071368    0.3753391   -0.1103374
 N    9.1496479   -0.2109910   14.6489769  0.00    0.0057738   -0.2334888    0.0437601
 N   10.7758325    1.4783709   15.0933168  0.00    0.0909085    0.7732725   -0.0890643
 N    9.4189021   -3.4414476   16.5279394  0.00    0.1927996   -0.1566375   -0.0985205
 N    7.9393917   -2.7339228   18.0546920  0.00   -0.1913003    0.0767635    0.0819782
 N    7.6095136   -4.9481338   17.1809043  0.00    0.2571829   -1.1673537   -0.4845676
 C    9.8434911    0.6095562   15.5198746  0.00   -0.1058931    0.0191153    0.1346400
 C    9.7797583   -0.8458757   13.5144076  0.00    0.1489783    0.0225723   -0.2208743
 C    8.3345570   -3.7013035   17.2489676  0.00   -0.0722936   -0.5382882   -0.1964871
 C   10.2760744   -4.5161159   16.0309158  0.00    0.1434622   -0.0042086    0.7449767
 C   10.6391513    2.3201844   13.8725409  0.00   -0.5362157   -0.0161909   -1.0256129
 C    7.8226963   -0.7096754   14.9569799  0.00   -0.2175334   -0.0518969    0.1898971
 C    9.7997442    1.5692906   17.7089682  0.00    0.3005783    0.0284160   -0.2552758
 C   10.5692007   -4.4253157   14.5552278  0.00    0.1381942    0.0216957   -0.6220501
 C    9.2168227    2.3775319   13.3089370  0.00   -0.9026975   -1.0347346   -0.2486081
 C    7.9665947   -5.9689194   18.1557098  0.00    0.1439328    0.2069823    1.0170443
 C   11.6306731    1.9091940   12.7762120  0.00    0.3126452   -0.7049565   -0.2382398
 C    6.5664726   -1.1815975   19.2514380  0.00   -0.1185037    0.4658631    0.1280649
 C    6.5720242   -2.5615218   18.5852009  0.00    0.2248791   -0.0025338   -0.1610851
 C    6.2000648   -3.6105033   19.6403154  0.00   -0.0284178   -0.4408639    0.3978238
 C    5.5216551   -2.5937798   17.4556896  0.00   -0.2013368   -0.0804747   -0.2983542
 C    8.7771332    1.6547144   18.8265140  0.00   -0.2231333    0.0356794    0.2649100
Mn   12.5376990    1.5399000   16.2820354  0.00   -0.0339214    0.1000807   -0.0486942
 N   12.6609453   -0.4311815   17.0507860  0.00   -0.1383561   -0.3808588    0.0586105
 N   13.0568878    0.2109910   19.2204440  0.00    0.2076408    0.2902763    0.2645549
 N   11.4307032   -1.4783709   18.7761041  0.00    0.1481383    0.0874956    0.0438787
 N   12.7876336    3.4414476   17.3414815  0.00   -0.0822806    0.4404563    0.2068434
 N   14.2671440    2.7339228   15.8147289  0.00    0.1670296   -0.3052461   -0.2889746
 N   14.5970221    4.9481338   16.6885166  0.00    0.5397791    1.3499051    1.1696967
 C   12.3630446   -0.6095562   18.3495463  0.00   -0.0074484    0.0852252   -0.0224225
 C   12.4267774    0.8458757   20.3550134  0.00   -0.3888713   -0.1576978    0.3490297
 C   13.8719787    3.7013035   16.6204534  0.00    0.5782977    0.7900119   -0.6411777
 C   11.9304613    4.5161159   17.8385051  0.00    0.0880680    0.2017808   -0.5368814
 C   11.5673845   -2.3201844   19.9968800  0.00   -0.0071600    0.0395676   -0.2147071
 C   14.3838394    0.7096754   18.9124410  0.00    0.2623655    0.0674592   -0.3576378
 C   12.4067915   -1.5692906   16.1604527  0.00   -0.3023469   -0.0340937    0.3654240
 C   11.6373350    4.4253157   19.3141931  0.00   -0.1194290   -0.0836898    0.4637604
 C   12.9897131   -2.3775319   20.5604839  0.00    0.5381054    0.1353569    0.1325086
 C   11.2054179   -3.7443141   19.5711152  0.00   -0.2096473   -0.5279528   -0.2799140
 C   10.5758626   -1.9091940   21.0932089  0.00   -0.2601970    0.1654874    0.3782081
 C   15.6400631    1.1815975   14.6179829  0.00    0.0930706   -0.2345553   -0.1772542
 C   15.6345115    2.5615218   15.2842200  0.00   -0.2630933    0.0125900    0.0742523
 C   16.0064710    3.6105033   14.2291055  0.00    0.0027104    0.3147101   -0.2014339
 C   16.6848806    2.5937798   16.4137313  0.00    0.1897907   -0.0189247    0.3226627
 C   13.4294025   -1.6547144   15.0429069  0.00    0.2357625   -0.0301848   -0.3901212
 C   14.8850409    5.4814656   18.0126253  0.00   -0.4120962   -0.7520848    1.6658424
 H   15.5616823    6.3938231   17.9158810  0.00   -0.4397043   -0.8803567    0.8288789
 H   15.4085685    4.6846548   18.6376138  0.00   -0.2412937    0.3804401   -0.0545522
 H   13.9103422    5.7834282   18.5209365  0.00    0.6075738   -0.0226263    0.0108998
 H   15.1052190    1.2426419   13.6130876  0.00    0.2275132   -0.1449136    0.4630572
 H   15.1028665    0.4332356   15.2895285  0.00    0.3606313    0.4019644   -0.3693182
 H   16.7162341    0.8423132   14.4556823  0.00   -0.5197088    0.0905714   -0.0050226
 H   15.1894213    3.6575340   13.4354953  0.00    0.4077441    0.0355304    0.3265199
 H   16.9953186    3.3233576   13.7398951  0.00   -0.4563931    0.1799590    0.1789182
 H   16.1111654    4.6303680   14.7276177  0.00    0.0244811   -0.6571226   -0.4776392
 H   17.6434037    3.0752085   16.0276495  0.00   -0.3732515   -0.2833885    0.2817639
 H   16.9059363    1.5295909   16.7575852  0.00   -0.0434472    0.5463421   -0.0474423
 H   16.2814555    3.2003765   17.2905938  0.00    0.3372350   -0.3110101   -0.4194058
 H   10.9443381    4.4920737   17.2670314  0.00    0.4204082    0.0794841    0.1939819
 H   12.4359606    5.5212285   17.6546073  0.00   -0.4209568   -0.4177992   -0.1107192
 H   11.2447605    3.3837114   19.5602517  0.00    0.1864072    0.5857646   -0.0188076
 H   10.8524450    5.2031973   19.5942772  0.00    0.3695267   -0.3773648   -0.0449968
 H   12.5930965    4.6203628   19.9041728  0.00   -0.4893667   -0.1474632   -0.1677639
 C   15.3831633    6.1069293   16.1234735  0.00   -0.4136106   -0.4235710   -2.1867676
 H   15.1713741    6.2015294   15.0073215  0.00    0.1952980    0.0769174    0.4141485
 H   16.4969515    5.9251782   16.2848475  0.00   -0.4603464    0.1833337   -0.1369764
 H   15.0746746    7.0689322   16.6516632  0.00    0.0293062   -0.3863684   -0.7891060
 C    7.7235151   -5.8641440   15.9859031  0.00   -0.5327655    0.6360290   -0.6951865
 H    8.9094842   -6.5095305   17.8117648  0.00   -0.3405086    0.0955411    0.3523483
 H    7.1126420   -6.7180271   18.2516343  0.00    0.4375793    0.3466926    0.0536516
 H    8.1572521   -5.4784752   19.1670028  0.00    0.0115836   -0.4232110   -0.4508513
 H    7.2071033   -5.3853233   15.0894385  0.00    0.2733370   -0.2679870    0.3409516
 H    7.2256239   -6.8618772   16.2230362  0.00    0.1514707    0.6105681   -0.1615954
 H    8.8238855   -6.0367886   15.7430489  0.00   -1.1453985   -0.3476609   -0.1798191
 H    9.7705914   -5.5156436   16.2431202  0.00    1.0071772    0.7880708    0.2092609
 H   11.2761347   -4.4880835   16.5774437  0.00   -0.4859046   -0.0717179   -0.1068627
 H    9.9321129   -3.6016504   14.0912302  0.00    0.3658621   -0.5023107    0.1590778
 H   10.3244283   -5.4211363   14.0572047  0.00    0.1684866    0.5048523    0.0724504
 H   11.6727642   -4.1844847   14.4011262  0.00   -0.5663983   -0.1176234   -0.1149815
 H    6.0265227   -1.2455580   20.2534172  0.00    0.2414120    0.2378769   -0.5157263
 H    6.0288750   -0.4361517   18.5769763  0.00    0.3470230   -0.1995765    0.3989580
 H    7.6398901   -0.8364810   19.4195709  0.00   -0.6529442   -0.1828043    0.0119529
 H    7.0045841   -4.4174821   19.6739775  0.00   -0.6207850    0.4657168    0.1319644
 H    5.1986867   -4.0833059   19.3695776  0.00    0.4855563    0.1420861    0.2712158
 H    6.1204311   -3.1104715   20.6616997  0.00    0.0227804   -0.4385238   -0.4277584
 H    5.2252748   -3.6738596   17.2431204  0.00    0.1326810    0.5763840   -0.0199719
 H    5.9627423   -2.1282420   16.5131845  0.00   -0.3098392   -0.1927137    0.4424181
 H    4.6007944   -2.0030742   17.7761294  0.00    0.3633027   -0.3235792   -0.1972025
 H   13.7327803   -2.0836713   19.7474056  0.00   -0.2511908   -0.2449761    0.5033899
 H   13.2150301   -3.4368756   20.9163244  0.00   -0.0055939    0.6100609   -0.0840850
 H   13.0804108   -1.6547506   21.4373877  0.00    0.1770314   -0.3793412   -0.4427634
 H   11.7479969   -4.4905952   20.2406462  0.00   -0.4088962    0.2518305   -0.3420385
 H   11.5188948   -3.9082008   18.4873844  0.00   -0.1469203   -0.0250851    0.5869038
 H   10.0796352   -3.8953656   19.6680477  0.00    0.5215913   -0.0296065   -0.1853410
 H   10.1370679   -2.8429236   21.5781908  0.00    0.1755019    0.5391099   -0.1056191
 H    9.7365672   -1.2895316   20.6336429  0.00    0.3386262   -0.3452156    0.3079163
 H   11.1172257   -1.2897498   21.8823947  0.00   -0.4687833   -0.2986689   -0.2710624
 H    9.7669793    2.5325609   17.1001695  0.00    0.1680407   -0.4307681    0.2945959
 H   10.8327815    1.4609596   18.1787529  0.00   -0.3955619    0.1615093   -0.2292226
 H    8.5215658    0.6044728   19.1888358  0.00    0.1137921    0.6497893   -0.0970185
 H    7.8331235    2.1634638   18.4397080  0.00    0.3698732   -0.3090695    0.2817927
 H    9.2083446    2.2603924   19.6906959  0.00   -0.3126646   -0.2696822   -0.3676653
 H   11.8834643    0.0599866   20.9769365  0.00    0.2546590    0.6169500   -0.2593854
 H   11.6786879    1.6238961   19.9880726  0.00    0.3246953   -0.3163691    0.3399750
 H   13.2209906    1.3547011   20.9952643  0.00   -0.4866554   -0.2882582   -0.2970803
 H   14.4216323    1.0412518   17.8223823  0.00    0.1985550   -0.1051750    0.6005013
 H   15.1498972   -0.1167436   19.0850283  0.00   -0.2119346    0.3905376   -0.1055637
 H   14.6227871    1.5964140   19.5878652  0.00   -0.0902650   -0.4784459   -0.4286826
 H    9.3631287   -0.4018265   12.5506445  0.00    0.2541247   -0.2789046    0.2872015
 H    9.5679049   -1.9657361   13.5395083  0.00    0.1053888    0.5622712   -0.0557101
 H   10.9054310   -0.6710212   13.5578365  0.00   -0.6466427   -0.1389391   -0.0572031
 H    7.8935550   -1.7973583   15.2909321  0.00   -0.1441875    0.4567919   -0.1555223
 H    7.1652901   -0.6393630   14.0282860  0.00    0.2660608   -0.0453150    0.3824333
 H    7.3664455   -0.0842007   15.7937689  0.00    0.2437488   -0.3534681   -0.4572345
 C   10.7903908    3.8490190   13.7658173  0.00    0.6436467    0.9567837    1.1196066
 H    8.7360848    1.3466562   13.3850002  0.00    0.0150162    0.6519773   -0.2353167
 H    9.2538351    2.6998604   12.2160813  0.00   -0.1199714   -0.0972021    0.5712180
 H    8.6014660    3.1287810   13.9060637  0.00    0.1119897   -0.5981899   -0.3190328
 H   11.2825293    2.3252717   11.7735782  0.00    0.2900864   -0.2720301    0.4481951
 H   11.6830298    0.7718796   12.7181260  0.00    0.1252031    0.5911831   -0.1264025
 H   12.6631874    2.3250537   13.0223302  0.00   -0.4147028   -0.2643836   -0.1452619
 H   11.2551707    4.1155728   12.7595728  0.00   -0.2694849   -0.0293957    0.6022937
 H   11.4630970    4.2239223   14.6063606  0.00   -0.1984990    0.0357696   -0.4192939
 H    9.7648611    4.3392960   13.8525153  0.00    0.8044882    0.0621175    0.0560298
 H   11.3669543   -1.4611608   15.7058696  0.00    0.3946325   -0.2601122    0.1817229
 H   12.4520410   -2.5380380   16.7596856  0.00   -0.1623338    0.4849865   -0.2100905
 H   12.9976368   -1.1887555   14.0963025  0.00    0.3910408   -0.2173814    0.3575279
 H   13.6860790   -2.7477466   14.8454301  0.00   -0.0707422    0.5592671   -0.0335429
 H   14.3728575   -1.0918268   15.3472906  0.00   -0.4792096   -0.4242292   -0.2138304
130
 Energy =   -4374.0424484580
Mn    9.6691868   -1.5405901   17.5873110  0.00    0.0294548   -0.0657059   -0.0090047
 N    9.5466599    0.4349266   16.8175335  0.00    0.0897264    0.3091531   -0.0757830
 N    9.1497059   -0.2133212   14.6494132  0.00    0.0232286   -0.1975010    0.0613377
 N   10.7767401    1.4860869   15.0924279  0.00   -0.0306487    0.6437862   -0.0846098
 N    9.4208263   -3.4430110   16.5269558  0.00    0.1018316   -0.1440162   -0.0179642
 N    7.9374830   -2.7331571   18.0555095  0.00   -0.1083030   -0.0588321   -0.0327631
 N    7.6120802   -4.9597829   17.1760682  0.00    0.2625615   -0.9135455   -0.3742470
 C    9.8424348    0.6097466   15.5212178  0.00   -0.0080945    0.1099275    0.0163844
 C    9.7812454   -0.8456506   13.5122031  0.00    0.0667529    0.0376268   -0.1342338
 C    8.3338358   -3.7066753   17.2470063  0.00   -0.0872829   -0.4306194   -0.1499499
 C   10.2775062   -4.5161583   16.0383492  0.00    0.1465314    0.0699253    0.4398609
 C   10.6338010    2.3200226   13.8623064  0.00   -0.4313783    0.0346831   -0.8387967
 C    7.8205260   -0.7101934   14.9588744  0.00   -0.1158501   -0.0465103    0.1121221
 C    9.8027440    1.5695737   17.7064206  0.00    0.1694636    0.0098100   -0.1491446
 C   10.5705800   -4.4250995   14.5490199  0.00    0.0950831   -0.0090501   -0.3477693
 C    9.2078153    2.3672064   13.3064560  0.00   -0.6640887   -0.7222929   -0.2247192
 C    7.9680311   -5.9668543   18.1658580  0.00    0.1164691    0.0922206    0.6843421
 C   11.6337934    1.9021592   12.7738344  0.00    0.2018384   -0.4963158   -0.1872978
 C    6.5652904   -1.1769492   19.2527154  0.00   -0.0968877    0.2948706    0.0648662
 C    6.5742685   -2.5615475   18.5835929  0.00    0.1274856    0.0011032   -0.0917287
 C    6.1997814   -3.6149030   19.6442845  0.00   -0.0235273   -0.2744558    0.2558656
 C    5.5196463   -2.5945831   17.4527118  0.00   -0.1156180   -0.0546824   -0.1817018
 C    8.7749070    1.6550700   18.8291572  0.00   -0.1039708    0.0337178    0.1319464
Mn   12.5373610    1.5408982   16.2815493  0.00   -0.0379743    0.1087547   -0.0406505
 N   12.6595650   -0.4349825   17.0513706  0.00   -0.1148053   -0.2954924    0.0611266
 N   13.0589602    0.2138871   19.2230837  0.00    0.1424251    0.2102272    0.1771827
 N   11.4321817   -1.4774983   18.7765415  0.00    0.1157513    0.0676612    0.0483294
 N   12.7868130    3.4458424   17.3435455  0.00    0.1516007    0.4182029    0.0072700
 N   14.2688112    2.7308764   15.8118452  0.00    0.1151404   -0.1227935   -0.1838140
 N   14.6024090    4.9616038   16.7001888  0.00    0.3912628    1.0472703    0.9382134
 C   12.3629706   -0.6087062   18.3493223  0.00    0.0347725    0.1133874    0.0428788
 C   12.4228972    0.8443014   20.3584960  0.00   -0.2564559   -0.1000797    0.2233100
 C   13.8777499    3.7091864   16.6140551  0.00    0.4183148    0.7027178   -0.4861061
 C   11.9313406    4.5181290   17.8331477  0.00    0.0566326    0.1341692   -0.3096841
 C   11.5673132   -2.3197902   19.9947370  0.00    0.0045249    0.0058256   -0.1410840
 C   14.3864578    0.7103479   18.9088720  0.00    0.1721146    0.0335875   -0.2339725
 C   12.4037748   -1.5696312   16.1640988  0.00   -0.1708084   -0.0092530    0.2247191
 C   11.6361437    4.4244801   19.3188208  0.00   -0.0697508   -0.0350341    0.2464152
 C   12.9950829   -2.3761819   20.5618058  0.00    0.3485589    0.0998098    0.0748477
 C   11.2033261   -3.7495830   19.5683215  0.00   -0.1476547   -0.3483048   -0.1928763
 C   10.5732664   -1.9075432   21.0969826  0.00   -0.1580284    0.1049752    0.2365660
 C   15.6409923    1.1792566   14.6162140  0.00    0.0805044   -0.1178610   -0.1185958
 C   15.6318866    2.5616470   15.2849609  0.00   -0.1524065   -0.0101354    0.0234452
 C   16.0064985    3.6136433   14.2270955  0.00   -0.0157875    0.1676014   -0.1294320
 C   16.6867749    2.5935905   16.4169510  0.00    0.1059388   -0.0187283    0.1968416
 C   13.4317555   -1.6550160   15.0390136  0.00    0.1039343   -0.0256848   -0.2262625
 C   14.8809291    5.4739601   18.0292485  0.00   -0.2731498   -0.4908476    1.2766902
 H   15.5572951    6.3850376   17.9241524  0.00   -0.4228185   -0.8268939    0.7998362
 H   15.4061611    4.6884505   18.6370695  0.00   -0.1725666    0.2285441    0.0734954
 H   13.9164055    5.7832019   18.5210453  0.00    0.4535199   -0.0098416    0.1207712
 H   15.1074898    1.2411955   13.6177082  0.00    0.1915966   -0.1418070    0.3884234
 H   15.1064656    0.4372463   15.2858430  0.00    0.3194107    0.3375561   -0.3215816
 H   16.7110484    0.8432166   14.4556320  0.00   -0.4336670    0.0639027   -0.0186404
 H   15.1934906    3.6578882   13.4387536  0.00    0.3453043    0.0435119    0.2629385
 H   16.9907649    3.3251530   13.7416805  0.00   -0.3971065    0.1650977    0.1481717
 H   16.1114102    4.6238102   14.7228515  0.00    0.0364750   -0.5410759   -0.4212657
 H   17.6396795    3.0723801   16.0304612  0.00   -0.3111588   -0.2510445    0.2571348
 H   16.9055032    1.5350422   16.7571117  0.00   -0.0266720    0.4629588   -0.0184861
 H   16.2848211    3.1972724   17.2864087  0.00    0.3012611   -0.2576982   -0.3362811
 H   10.9485337    4.4928664   17.2689671  0.00    0.3471417    0.0791648    0.1460252
 H   12.4317604    5.5170589   17.6535025  0.00   -0.3702257   -0.3192921   -0.1262940
 H   11.2466210    3.3895560   19.5600639  0.00    0.1493237    0.4875457    0.0029111
 H   10.8561328    5.1994311   19.5938281  0.00    0.3075991   -0.3203264   -0.0150041
 H   12.5882136    4.6188907   19.9024987  0.00   -0.4215534   -0.1332968   -0.1226379
 C   15.3790365    6.1027021   16.1016523  0.00   -0.3168216   -0.3629667   -1.4572431
 H   15.1733235    6.2022965   15.0114543  0.00    0.1129736    0.0622736    0.0950671
 H   16.4923583    5.9270071   16.2834808  0.00   -0.4602988    0.1800885   -0.1946394
 H   15.0749675    7.0650763   16.6437890  0.00    0.0483022   -0.4230406   -0.8061540
 C    7.7181990   -5.8577975   15.9789652  0.00   -0.4111731    0.4520852   -0.4642966
 H    8.9060865   -6.5085775   17.8152801  0.00   -0.3100369    0.0796499    0.3669765
 H    7.1170086   -6.7145679   18.2521689  0.00    0.3984343    0.3063432    0.0850156
 H    8.1573679   -5.4826988   19.1625031  0.00    0.0341256   -0.3164254   -0.2842703
 H    7.2098311   -5.3879977   15.0928401  0.00    0.1741707   -0.1677804    0.1963173
 H    7.2271356   -6.8557847   16.2214229  0.00    0.1215443    0.5823166   -0.1768916
 H    8.8124560   -6.0402581   15.7412538  0.00   -1.0317931   -0.3219153   -0.1995168
 H    9.7806421   -5.5077799   16.2452078  0.00    0.8875210    0.6374718    0.2212550
 H   11.2712862   -4.4887996   16.5763768  0.00   -0.3775281   -0.0567044   -0.0484165
 H    9.9357641   -3.6066630   14.0928170  0.00    0.3080452   -0.4237683    0.1137351
 H   10.3261099   -5.4160987   14.0579270  0.00    0.1498502    0.4239561    0.0309106
 H   11.6671125   -4.1856587   14.3999783  0.00   -0.4669634   -0.0958157   -0.1339831
 H    6.0289319   -1.2431847   20.2482704  0.00    0.1939303    0.2317164   -0.4324446
 H    6.0323382   -0.4381436   18.5809569  0.00    0.2945427   -0.1297793    0.3382309
 H    7.6333748   -0.8383056   19.4196897  0.00   -0.5644081   -0.1435094    0.0261850
 H    6.9983895   -4.4128352   19.6752937  0.00   -0.5233636    0.3629116    0.1390795
 H    5.2035322   -4.0818884   19.3722833  0.00    0.4105725    0.1018349    0.2527265
 H    6.1206586   -3.1148479   20.6574306  0.00    0.0169378   -0.3965161   -0.3393556
 H    5.2265991   -3.6681082   17.2429204  0.00    0.1048984    0.4802255   -0.0408965
 H    5.9596508   -2.1301653   16.5175988  0.00   -0.2768045   -0.1583559    0.3612229
 H    4.6044200   -2.0063034   17.7741609  0.00    0.3031381   -0.2871580   -0.1794043
 H   13.7302739   -2.0861165   19.7524285  0.00   -0.1715170   -0.2103239    0.4258453
 H   13.2149745   -3.4307886   20.9154849  0.00    0.0145297    0.5327593   -0.0588906
 H   13.0821776   -1.6585366   21.4329691  0.00    0.1864664   -0.3108783   -0.3651755
 H   11.7439168   -4.4880829   20.2372326  0.00   -0.3678632    0.1923935   -0.2969560
 H   11.5174289   -3.9084517   18.4932404  0.00   -0.1212820   -0.0500581    0.4759352
 H   10.0848402   -3.8956616   19.6661976  0.00    0.4212647   -0.0484014   -0.1791395
 H   10.1388193   -2.8375445   21.5771364  0.00    0.1387176    0.4666193   -0.0668154
 H    9.7399465   -1.2929770   20.6367152  0.00    0.2693820   -0.2918219    0.2774638
 H   11.1125480   -1.2927308   21.8796894  0.00   -0.4182978   -0.2405004   -0.2009526
 H    9.7686566    2.5282620   17.1031090  0.00    0.1666482   -0.3565480    0.2470411
 H   10.8288346    1.4625708   18.1764653  0.00   -0.3213175    0.1491793   -0.1988059
 H    8.5227017    0.6109565   19.1878673  0.00    0.0901056    0.5569689   -0.0652473
 H    7.8368148    2.1603793   18.4425197  0.00    0.3008010   -0.2688687    0.2526346
 H    9.2052249    2.2577007   19.6870268  0.00   -0.2798703   -0.2227383   -0.2994192
 H   11.8860057    0.0661424   20.9743479  0.00    0.1823868    0.5022738   -0.1806981
 H   11.6819283    1.6207385   19.9914649  0.00    0.2667505   -0.2700624    0.3192504
 H   13.2161346    1.3518240   20.9922996  0.00   -0.4460150   -0.2566741   -0.2457579
 H   14.4236140    1.0402018   17.8283744  0.00    0.1954155   -0.0722788    0.4779054
 H   15.1477826   -0.1128471   19.0839747  0.00   -0.1650425    0.3416893   -0.1030173
 H   14.6218867    1.5916390   19.5835873  0.00   -0.0639069   -0.4147509   -0.3895918
 H    9.3656650   -0.4046097   12.5535100  0.00    0.2270460   -0.2449464    0.2250243
 H    9.5689569   -1.9601255   13.5389520  0.00    0.0982185    0.4919562   -0.0611497
 H   10.8989787   -0.6724078   13.5572654  0.00   -0.5413087   -0.1208279   -0.0552061
 H    7.8921166   -1.7928003   15.2893797  0.00   -0.1460279    0.3842338   -0.1273676
 H    7.1679455   -0.6398153   14.0321017  0.00    0.2268448   -0.0411912    0.3395768
 H    7.3688782   -0.0877282   15.7892059  0.00    0.1986573   -0.2952048   -0.3753639
 C   10.7968142    3.8585664   13.7769895  0.00    0.4516784    0.6248230    0.7911201
 H    8.7362352    1.3531620   13.3826517  0.00   -0.0842724    0.4268677   -0.2194143
 H    9.2526384    2.6988903   12.2217812  0.00   -0.1442853   -0.1016160    0.4933163
 H    8.6025840    3.1228116   13.9028799  0.00    0.0805284   -0.5757365   -0.2948659
 H   11.2854246    2.3225570   11.7780505  0.00    0.2824365   -0.2620845    0.3777879
 H   11.6842797    0.7777787   12.7168644  0.00    0.1312573    0.4226958   -0.1331879
 H   12.6590496    2.3224153   13.0208805  0.00   -0.3584713   -0.2525685   -0.1270138
 H   11.2524821    4.1152793   12.7655829  0.00   -0.2390515    0.0040050    0.5899277
 H   11.4611167    4.2242790   14.6021765  0.00   -0.0632389    0.0981503   -0.2332996
 H    9.7728895    4.3399157   13.8530744  0.00    0.7249218    0.0972632    0.0873558
 H   11.3708926   -1.4637567   15.7076826  0.00    0.3228352   -0.2460112    0.1567658
 H   12.4504214   -2.5331988   16.7575887  0.00   -0.1574918    0.4007931   -0.1616613
 H   13.0015393   -1.1909250   14.0998699  0.00    0.3508386   -0.1790009    0.2775082
 H   13.6853735   -2.7421661   14.8450950  0.00   -0.0503684    0.4712881   -0.0510949
 H   14.3680759   -1.0960605   15.3451565  0.00   -0.3975671   -0.3730046   -0.1918095
130
 Energy =   -4374.1029433910
Mn    9.6699531   -1.5424977   17.5870037  0.00    0.0232250   -0.0546848   -0.0198149
 N    9.5489852    0.4427982   16.8160038  0.00    0.0780444    0.1883856   -0.1104627
 N    9.1507893   -0.2184890   14.6516459  0.00    0.0764994   -0.1055430    0.0729992
 N   10.7731581    1.5026627   15.0899739  0.00   -0.1241644    0.5155856   -0.1275559
 N    9.4219071   -3.4470779   16.5281748  0.00    0.0339149   -0.1021450    0.0276888
 N    7.9360342   -2.7378985   18.0520098  0.00   -0.1090697   -0.1226136   -0.0548537
 N    7.6201144   -4.9817738   17.1671964  0.00    0.2165305   -0.4719009   -0.1618006
 C    9.8443315    0.6150466   15.5191239  0.00   -0.0047655    0.1351291   -0.0157987
 C    9.7814604   -0.8441874   13.5100504  0.00   -0.0378379    0.0672651   -0.0020765
 C    8.3308772   -3.7173036   17.2435017  0.00   -0.0627769   -0.3650870   -0.1424379
 C   10.2819920   -4.5124293   16.0449337  0.00    0.0931752    0.1539910    0.1464536
 C   10.6230904    2.3221806   13.8411042  0.00   -0.2447551    0.0491265   -0.4741020
 C    7.8192590   -0.7114785   14.9605520  0.00    0.0399819   -0.0111716    0.0272974
 C    9.8049857    1.5694611   17.7042452  0.00    0.0301618   -0.0222294   -0.0506137
 C   10.5725045   -4.4260457   14.5445338  0.00    0.0465350   -0.0188590   -0.0734343
 C    9.1930154    2.3522649   13.3002030  0.00   -0.2978602   -0.3318461   -0.1568065
 C    7.9709422   -5.9665859   18.1792093  0.00    0.0784642    0.0197648    0.2659522
 C   11.6374561    1.8917598   12.7693017  0.00    0.0366682   -0.2185608   -0.0696938
 C    6.5628428   -1.1718014   19.2532869  0.00   -0.0593571    0.0492794   -0.0298341
 C    6.5759820   -2.5614359   18.5823428  0.00    0.0512915   -0.0224043   -0.0484280
 C    6.1991795   -3.6195385   19.6488909  0.00   -0.0183769   -0.0378904    0.0581630
 C    5.5180366   -2.5956685   17.4497837  0.00    0.0087479   -0.0199708   -0.0067313
 C    8.7743801    1.6560422   18.8302257  0.00    0.0211413    0.0304486   -0.0165315
Mn   12.5361286    1.5443656   16.2804994  0.00   -0.0290159    0.1240928   -0.0264094
 N   12.6566199   -0.4420250   17.0532678  0.00   -0.0560872   -0.1081278    0.0659224
 N   13.0618281    0.2184722   19.2265136  0.00    0.0759473    0.1290648    0.0878029
 N   11.4349636   -1.4758939   18.7780949  0.00    0.0877667    0.0593595    0.0536532
 N   12.7965013    3.4579625   17.3393987  0.00    0.1819228    0.3755671   -0.0783946
 N   14.2711487    2.7311646   15.8086041  0.00    0.0925604    0.1047234   -0.1042619
 N   14.6109573    4.9865556   16.7234113  0.00    0.1532824    0.5443533    0.5247113
 C   12.3649434   -0.6046732   18.3520428  0.00    0.0185133    0.0508859    0.0557813
 C   12.4180628    0.8425427   20.3624777  0.00   -0.0852985   -0.0637730    0.0296919
 C   13.8868629    3.7284615   16.6027923  0.00    0.3500921    0.5719674   -0.3149473
 C   11.9323614    4.5206935   17.8287816  0.00    0.0942596    0.0199034   -0.1238068
 C   11.5677057   -2.3203545   19.9920930  0.00    0.0113887   -0.0092245   -0.0555479
 C   14.3896732    0.7106178   18.9045232  0.00    0.0248689   -0.0332075   -0.0908983
 C   12.4015037   -1.5693678   16.1677947  0.00   -0.0379429    0.0256528    0.0955150
 C   11.6351285    4.4244865   19.3214952  0.00    0.0009181   -0.0070565    0.0168562
 C   13.0014453   -2.3739524   20.5627999  0.00    0.0788181    0.0521490   -0.0010537
 C   11.2002311   -3.7561556   19.5644091  0.00   -0.0593660   -0.0844555   -0.0668626
 C   10.5707375   -1.9057042   21.1010148  0.00   -0.0085461    0.0149059    0.0408680
 C   15.6431458    1.1782550   14.6139217  0.00    0.0502827    0.0383805   -0.0339282
 C   15.6297145    2.5608431   15.2845565  0.00   -0.0499406    0.0005959   -0.0044017
 C   16.0056194    3.6154770   14.2247689  0.00   -0.0303170   -0.0424892   -0.0277840
 C   16.6881356    2.5930287   16.4201334  0.00   -0.0094113   -0.0229180    0.0077767
 C   13.4320061   -1.6556929   15.0357759  0.00   -0.0360516   -0.0145538   -0.0400174
 C   14.8757349    5.4648750   18.0592265  0.00   -0.1601172   -0.2611016    0.7201248
 H   15.5449183    6.3612756   17.9476321  0.00   -0.2798306   -0.5754778    0.7121032
 H   15.4024630    4.6920160   18.6420872  0.00   -0.0644978    0.0016719    0.2562907
 H   13.9267095    5.7831831   18.5270907  0.00    0.1910059    0.0251165    0.2961802
 H   15.1124820    1.2369873   13.6277859  0.00    0.1135528   -0.1224625    0.2320709
 H   15.1151949    0.4460130   15.2771918  0.00    0.2268618    0.2058091   -0.2084542
 H   16.6998575    0.8445587   14.4547722  0.00   -0.2514658    0.0180706   -0.0429840
 H   15.2025368    3.6593739   13.4452903  0.00    0.2075545    0.0456889    0.1346973
 H   16.9800912    3.3298044   13.7454756  0.00   -0.2545097    0.1164723    0.0757249
 H   16.1127738    4.6100351   14.7113848  0.00    0.0522362   -0.3132724   -0.2954336
 H   17.6316581    3.0655176   16.0376753  0.00   -0.1744210   -0.1782007    0.1921426
 H   16.9050671    1.5471742   16.7571881  0.00    0.0006528    0.2860658    0.0321195
 H   16.2931179    3.1906678   17.2780891  0.00    0.2151031   -0.1469929   -0.1792007
 H   10.9573980    4.4952449   17.2723204  0.00    0.2215710    0.0570509    0.0688256
 H   12.4217096    5.5095862   17.6493545  0.00   -0.2793035   -0.1372292   -0.1345965
 H   11.2503126    3.4021045   19.5606267  0.00    0.0813104    0.3053231    0.0306330
 H   10.8640528    5.1910197   19.5940321  0.00    0.1852046   -0.1984372    0.0216176
 H   12.5769886    4.6151800   19.8997887  0.00   -0.2784058   -0.0986688   -0.0442127
 C   15.3716036    6.0930836   16.0736787  0.00   -0.2019268   -0.2877369   -0.6104372
 H   15.1749301    6.2038525   15.0073408  0.00    0.0014353    0.0138576   -0.2377871
 H   16.4784833    5.9323642   16.2763521  0.00   -0.3647495    0.1489956   -0.2505981
 H   15.0768408    7.0515184   16.6191125  0.00    0.0424278   -0.3516816   -0.7248969
 C    7.7084634   -5.8481926   15.9700161  0.00   -0.2491862    0.2488363   -0.1957861
 H    8.8974064   -6.5065250   17.8266617  0.00   -0.1838481    0.0038873    0.3471587
 H    7.1281650   -6.7062160   18.2554156  0.00    0.2701710    0.1827145    0.1281053
 H    8.1588902   -5.4899040   19.1575748  0.00    0.0611409   -0.1564105   -0.0560086
 H    7.2129136   -5.3908645   15.0955924  0.00    0.0207429   -0.0150427   -0.0072252
 H    7.2301460   -6.8388475   16.2157526  0.00    0.0183180    0.4338225   -0.1698189
 H    8.7838347   -6.0494011   15.7348055  0.00   -0.7163802   -0.2805869   -0.2347163
 H    9.8047828   -5.4918565   16.2521387  0.00    0.6464668    0.3493839    0.2163767
 H   11.2622759   -4.4901819   16.5761941  0.00   -0.1790953   -0.0115442    0.0364338
 H    9.9437876   -3.6177215   14.0952524  0.00    0.1976957   -0.2773495    0.0424296
 H   10.3302210   -5.4050873   14.0579483  0.00    0.1077248    0.2608574   -0.0264625
 H   11.6552105   -4.1880712   14.3955217  0.00   -0.2745547   -0.0553356   -0.1526116
 H    6.0337404   -1.2363351   20.2370529  0.00    0.0947104    0.2036434   -0.2627478
 H    6.0400709   -0.4405306   18.5898242  0.00    0.1920114   -0.0064097    0.2086818
 H    7.6182960   -0.8417741   19.4207891  0.00   -0.3641370   -0.0734172    0.0497848