98
 Energy =   -3839.3660185630
Mn    4.0266551   14.9271635   18.3085756  0.00   -0.0590774   -0.0215117   -0.0319469
Mn    2.6673737   17.6852084   16.9981832  0.00    0.0344831   -0.0467049   -0.0336213
 N    2.1571906   18.7069640   15.1503025  0.00   -0.1669998    0.1527267   -0.3352983
 N    4.7972096   17.4796658   17.0950516  0.00   -0.2164238    0.2614778   -0.4023022
 N    5.6471126   13.8724417   19.3364353  0.00    0.3342283   -0.1182030    0.1474938
 N    4.5888321   15.3301066   16.2809164  0.00   -0.6733702   -0.2662204   -0.1839594
 N    3.7404377   12.7992508   18.7650853  0.00   -0.0083647   -0.3015131    0.0502873
 N    1.7319877   19.6619926   17.1491857  0.00   -0.1943844    0.1853922    0.2576601
 N    2.5977804   16.0492080   19.4502392  0.00   -0.0942088   -0.2045764    0.2158912
 N    1.2717870   16.1818674   17.5723391  0.00   -0.1210198   -0.2727431   -0.2430388
 C    4.9389104   12.7583409   19.3144053  0.00    0.1427517   -0.2578153   -0.0559031
 C    5.1836937   16.5041821   16.2724487  0.00   -5.0286281   -0.5315296    3.2055684
 C    2.1758963   18.7230499   13.6790227  0.00    0.0813517   -0.1436529    0.3345516
 C    1.4097668   15.9810909   18.8637603  0.00    0.7796630    0.2927920   -0.5955822
 C    4.8946603   14.3135144   15.2370674  0.00    0.0406286    0.6282001    0.1261307
 C    1.6958837   19.7334857   15.8378804  0.00    0.2643349   -0.3683351    0.1729667
 C    2.8911382   11.5973724   18.7180523  0.00    0.1431657    0.3767228   -0.0448964
 C    5.8222020   13.2528348   15.8262953  0.00    0.2210230   -0.4258716    0.0662981
 C    7.0081037   13.8625121   19.9189459  0.00   -0.3830593    0.0184313   -0.2531603
 C   -0.0184040   15.8877527   16.9049519  0.00    0.1789137   -0.0587626   -0.0304894
 C    2.6037139   20.0728794   13.1036196  0.00   -0.1053724    0.3109478   -0.1240956
 C    5.6870382   18.6680400   17.2227252  0.00   -0.1993406   -0.3476065   -0.1306294
 C    1.2017915   20.7866188   17.9527490  0.00    0.1958932   -0.2927338   -0.3912842
 C    2.8189301   10.8842287   20.0683119  0.00    0.1121464   -0.2582093    0.2519293
 C   -0.7652244   17.1974666   16.6370320  0.00   -0.2613954    0.4076365   -0.2367579
 C    3.2031011   17.6719028   13.2657952  0.00    0.0068960   -0.3088604   -0.2515748
 C    6.9713962   13.5052452   21.4044321  0.00    0.0480281   -0.1813814    0.2718749
 C    2.6187992   16.0936926   20.9351742  0.00    0.0369224   -0.0505557   -0.3728094
 C    7.1071635   18.2682744   17.6163736  0.00    0.5549084   -0.1967599   -0.1389227
 C    7.5778232   15.2657628   19.7361843  0.00    0.2940720    0.1728252   -0.0888811
 C   -0.9282456   14.9458311   17.7029176  0.00   -0.0056318   -0.3050405    0.1059800
 C    1.3164394   20.3793067   19.4130348  0.00   -0.1815012   -0.0489403    0.5627576
 C    5.1159107   19.5287374   18.3272969  0.00   -0.3492828    0.6038485    0.2679013
 C    1.4934396   12.0892846   18.3540358  0.00   -0.3204401   -0.1156738   -0.3066439
 C    4.0589376   16.3758917   21.3433412  0.00    0.5672969   -0.2227913    0.3214708
 C    2.0244404   22.0629692   17.7090916  0.00   -0.0268073    0.2575019   -0.1608617
 C    1.7418434   17.2248723   21.4768927  0.00   -0.5150616    0.2075866    0.1714581
 H    1.9992790   21.1108406   19.9591003  0.00   -0.3567826   -0.4289378   -0.1107557
 H    1.7531928   19.3285031   19.4812794  0.00   -0.2320372    0.5962148    0.0319444
 H    0.2828119   20.3931641   19.8936818  0.00    0.5570173   -0.0499809   -0.0588764
 H    2.0979584   22.2595515   16.5885784  0.00    0.0138557    0.0494672    0.5589523
 H    3.0709575   21.9287462   18.1408151  0.00   -0.4951680    0.1172645   -0.2540721
 H    1.5142031   22.9467194   18.2172675  0.00    0.3033969   -0.3356832   -0.2510933
 H    1.3484149   20.6461153   15.3848087  0.00   -0.2597547    0.3652240   -0.3498148
 H    2.6231637   20.0118108   11.9654230  0.00   -0.0068277    0.1226924    0.5252018
 H    3.6439580   20.3372398   13.4878137  0.00   -0.4910075   -0.0716214   -0.1919437
 H    1.8631093   20.8763627   13.4284560  0.00    0.4257952   -0.2731347   -0.2794911
 H    3.2709399   17.6333855   12.1284679  0.00    0.0401945   -0.0731371    0.5119260
 H    2.8835713   16.6519101   13.6621725  0.00    0.2201262    0.4635038   -0.1999643
 H    4.2218136   17.9455134   13.6981856  0.00   -0.4818906   -0.1626575   -0.2123494
 H   -1.8106988   17.1377819   17.0876095  0.00    0.4499253    0.1510774   -0.2701293
 H   -0.8451815   17.3661073   15.5124137  0.00   -0.0395742    0.0757853    0.5683004
 H   -0.1957751   18.0635481   17.1116155  0.00   -0.3551877   -0.3637062   -0.2904965
 H   -0.3518391   14.0005681   17.9746388  0.00   -0.3979168    0.4137229   -0.0923995
 H   -1.8360509   14.6690077   17.0713659  0.00    0.4112689    0.1238857    0.3571714
 H   -1.2731981   15.4677194   18.6559337  0.00    0.0501534   -0.3302537   -0.4467544
 H    7.8009422   18.4001946   16.7214617  0.00   -0.1753477   -0.1373396    0.5018055
 H    7.1169487   17.1773828   17.9472196  0.00    0.1046226    0.6215507   -0.1265681
 H    7.4638558   18.9287833   18.4743350  0.00    0.0060989   -0.4197565   -0.4736675
 H    4.5156896   18.8772531   19.0448636  0.00    0.3036940    0.3696332   -0.2766937
 H    4.4349966   20.3238590   17.8759247  0.00    0.2472878   -0.3809218    0.3859038
 H    5.9665211   20.0339076   18.8937457  0.00   -0.5569248   -0.1204682   -0.2219754
 C    5.5424835   15.0808550   14.0695434  0.00    0.1322473   -0.1705159   -0.5311058
 H    6.5403432   12.8860297   15.0204873  0.00   -0.3162202    0.0407716    0.4466677
 H    5.2020956   12.3766172   16.2101052  0.00    0.4161398    0.3904509   -0.0877174
 H    6.4165098   13.7041371   16.6881095  0.00   -0.2493404   -0.3111925   -0.4204077
 H    4.7294224   15.4581641   13.3651510  0.00    0.5073885   -0.1165922    0.3063728
 H    6.2450233   14.3857762   13.5012984  0.00   -0.3398934    0.4225334    0.1480711
 H    6.1325620   15.9666557   14.4779105  0.00   -0.2150328   -0.6263922   -0.5812924
 H    6.4619135   12.4944372   21.5396864  0.00    0.2744931    0.4847398    0.0682426
 H    6.3889587   14.3034559   21.9729612  0.00    0.2825463   -0.4230540   -0.2207085
 H    8.0359353   13.4513453   21.8087223  0.00   -0.5153955   -0.0118763   -0.0930207
 H    7.7912322   15.4483194   18.6313182  0.00   -0.0776849   -0.0178292    0.5610069
 H    8.5452286   15.3636038   20.3312921  0.00   -0.4146672    0.0485967   -0.3342317
 H    6.8227628   16.0340203   20.1093641  0.00    0.4124846   -0.3562421   -0.1855385
 H    2.4109492    9.8301176   19.9199863  0.00    0.1773139    0.4716376    0.1709863
 H    2.1297564   11.4635242   20.7676370  0.00    0.3666917   -0.2932121   -0.2591210
 H    3.8622378   10.8272385   20.5242290  0.00   -0.5994651   -0.1081849   -0.1072228
 H    0.7421926   11.2452626   18.5052113  0.00    0.2563669    0.4334464   -0.1358779
 H    1.4790933   12.4199148   17.2631292  0.00   -0.0941702   -0.0905713    0.5211433
 H    1.2147406   12.9702095   19.0217913  0.00    0.1412387   -0.4590195   -0.3171120
 H    4.6422778   16.7558139   20.4405829  0.00   -0.2350956   -0.1490388    0.5068876
 H    4.5391794   15.4169967   21.7299771  0.00   -0.0674124    0.5527901   -0.2103932
 H    4.0731667   17.1660647   22.1649393  0.00    0.1884430   -0.4583975   -0.3802110
 H    0.9414081   16.7901482   22.1623980  0.00    0.3042492    0.3615804   -0.2827290
 H    1.2433632   17.7687350   20.6077954  0.00    0.1759332   -0.2005057    0.5760922
 H    2.3875058   17.9583608   22.0640161  0.00   -0.5154971   -0.2623636   -0.2800400
 H    5.3630850   11.7841746   19.7256262  0.00   -0.1223464    0.3853342   -0.1607406
 H    0.5433657   15.8537570   19.4397566  0.00   -0.8151726   -0.2809842    0.6779616
 H    6.0275565   16.5858827   15.9694521  0.00    5.5043763    0.6811154   -2.4967437
 H    3.2732070   10.8806185   17.9181231  0.00   -0.1677776    0.2450518    0.3111052
 H    7.6576643   13.1102600   19.3605670  0.00   -0.2118562    0.2887862    0.2453819
 H    2.2781598   15.0933983   21.3629305  0.00    0.1360681    0.4006160   -0.1975755
 H    3.9276513   13.8236941   14.8841243  0.00    0.4110052    0.2737715    0.2144852
 H    0.2062400   15.3965940   15.9010109  0.00    0.0181578    0.1711847    0.5012736
 H    5.7030784   19.2505407   16.2429115  0.00   -0.0203657   -0.2382238    0.4059368
 H    1.1480731   18.4389536   13.2759495  0.00    0.4063161    0.1044732    0.1093769
 H    0.1090442   20.9725375   17.6864094  0.00    0.4499544   -0.0386016    0.0602012
98
 Energy =   -3839.4093759540
Mn    4.0261890   14.9269939   18.3083232  0.00   -0.0635027   -0.0617226   -0.0044942
Mn    2.6676464   17.6848399   16.9979176  0.00   -0.0046780   -0.0240166   -0.0274783
 N    2.1558723   18.7081703   15.1476547  0.00   -0.1292128    0.0885027   -0.2552851
 N    4.7955010   17.4817308   17.0918746  0.00   -0.5627423    0.5636026    0.0431069
 N    5.6497521   13.8715085   19.3375999  0.00    0.2298625   -0.1393439    0.1045234
 N    4.5835151   15.3280045   16.2794637  0.00   -0.9909499   -0.5695096   -0.0198404
 N    3.7403719   12.7968702   18.7654824  0.00    0.0410836   -0.2342710    0.0554291
 N    1.7304532   19.6634569   17.1512202  0.00   -0.1443956    0.1016308    0.1977509
 N    2.5970368   16.0475928   19.4519439  0.00    0.0093606   -0.1828037    0.1617949
 N    1.2708318   16.1797140   17.5704199  0.00   -0.0499225   -0.2303804   -0.2891388
 C    4.9400379   12.7563053   19.3139638  0.00    0.1210674   -0.1717552   -0.0737517
 C    5.1439850   16.4999850   16.2977618  0.00   -0.9552255   -0.1692729    1.3700985
 C    2.1765391   18.7219158   13.6816644  0.00    0.1003690   -0.0955802    0.2424349
 C    1.4159238   15.9834034   18.8590571  0.00    0.3759247    0.2057001   -0.3322444
 C    4.8949815   14.3184752   15.2380633  0.00    0.0935011    0.5258220    0.0819916
 C    1.6979715   19.7305774   15.8392461  0.00    0.1743155   -0.1774517    0.1125303
 C    2.8922690   11.6003475   18.7176977  0.00    0.0817916    0.3011629   -0.0037924
 C    5.8239476   13.2494720   15.8268188  0.00    0.1459267   -0.2777673    0.0400109
 C    7.0050791   13.8626578   19.9169467  0.00   -0.3018448    0.0422023   -0.1653571
 C   -0.0169908   15.8872891   16.9047110  0.00    0.0983995   -0.0220480    0.0109410
 C    2.6028823   20.0753350   13.1026395  0.00   -0.0914883    0.2012165   -0.0782153
 C    5.6854645   18.6652952   17.2216935  0.00   -0.1445208   -0.2979421   -0.0654937
 C    1.2033389   20.7843075   17.9496590  0.00    0.1891204   -0.2288588   -0.2642955
 C    2.8198159   10.8821900   20.0703013  0.00    0.0842989   -0.1772761    0.1579400
 C   -0.7672881   17.2006859   16.6351623  0.00   -0.1895678    0.2862427   -0.1806418
 C    3.2031560   17.6694640   13.2638085  0.00   -0.0146777   -0.2199723   -0.1838532
 C    6.9717758   13.5038131   21.4065790  0.00    0.0371912   -0.1304685    0.1674048
 C    2.6190911   16.0932937   20.9322301  0.00    0.0478877    0.0123745   -0.2837843
 C    7.1115458   18.2667208   17.6152764  0.00    0.3942789   -0.1549732   -0.1296392
 C    7.5801458   15.2671277   19.7354823  0.00    0.2121145    0.0945815   -0.0679239
 C   -0.9282898   14.9434227   17.7037544  0.00    0.0189690   -0.2112705    0.0617909
 C    1.3150066   20.3789206   19.4174785  0.00   -0.1462565   -0.0203436    0.3923303
 C    5.1131530   19.5335060   18.3294122  0.00   -0.2646665    0.4316675    0.1789943
 C    1.4909095   12.0883715   18.3516143  0.00   -0.2162899   -0.0988905   -0.2343632
 C    4.0634177   16.3741328   21.3458797  0.00    0.4104933   -0.1822387    0.2332393
 C    2.0242292   22.0650029   17.7078211  0.00   -0.0397631    0.1674551   -0.1263761
 C    1.7377765   17.2265119   21.4782465  0.00   -0.3819944    0.1286942    0.1168835
 H    1.9964621   21.1074538   19.9582255  0.00   -0.3187458   -0.3825138   -0.0756556
 H    1.7513609   19.3332115   19.4815315  0.00   -0.2097978    0.5316204    0.0457535
 H    0.2872110   20.3927698   19.8932167  0.00    0.4702264   -0.0474729   -0.0204623
 H    2.0980684   22.2599424   16.5929920  0.00    0.0177373    0.0642392    0.4826802
 H    3.0670479   21.9296725   18.1388087  0.00   -0.4486679    0.1151730   -0.2368583
 H    1.5165994   22.9440690   18.2152845  0.00    0.2685908   -0.2874347   -0.2233136
 H    1.3463642   20.6489996   15.3820462  0.00   -0.2116151    0.2508708   -0.2863158
 H    2.6231103   20.0127798   11.9695702  0.00   -0.0080730    0.1180534    0.4600366
 H    3.6400812   20.3366744   13.4862978  0.00   -0.4457032   -0.0544126   -0.1770834
 H    1.8664722   20.8742061   13.4262488  0.00    0.3710181   -0.2175922   -0.2550481
 H    3.2712577   17.6328081   12.1325102  0.00    0.0393736   -0.0762556    0.4351699
 H    2.8853099   16.6555704   13.6605934  0.00    0.1985242    0.3918327   -0.1798774
 H    4.2180087   17.9442291   13.6965086  0.00   -0.4398174   -0.1582958   -0.2005630
 H   -1.8071456   17.1389753   17.0854763  0.00    0.3880452    0.1490265   -0.2461824
 H   -0.8454936   17.3667061   15.5169012  0.00   -0.0468114    0.0897211    0.4811252
 H   -0.1985794   18.0606765   17.1093214  0.00   -0.3244038   -0.3079448   -0.2646604
 H   -0.3549810   14.0038354   17.9739091  0.00   -0.3535066    0.3410905   -0.0712633
 H   -1.8328030   14.6699863   17.0741863  0.00    0.3652238    0.1051448    0.3211334
 H   -1.2728017   15.4651119   18.6524058  0.00    0.0382768   -0.3098992   -0.4018353
 H    7.7995580   18.3991102   16.7254241  0.00   -0.1191949   -0.1299560    0.4294425
 H    7.1177753   17.1822911   17.9462200  0.00    0.1161660    0.5412916   -0.1092872
 H    7.4639044   18.9254688   18.4705945  0.00    0.0210255   -0.3822661   -0.4309443
 H    4.5180881   18.8801722   19.0426785  0.00    0.2667757    0.3484774   -0.2362183
 H    4.4369498   20.3208513   17.8789719  0.00    0.1819902   -0.3005334    0.3436165
 H    5.9621237   20.0329565   18.8919927  0.00   -0.5015285   -0.0850354   -0.1892994
 C    5.5435281   15.0795086   14.0653494  0.00    0.0924936   -0.1542074   -0.4113769
 H    6.5378464   12.8863518   15.0240145  0.00   -0.2705359    0.0183349    0.3923072
 H    5.2053820   12.3797006   16.2094125  0.00    0.3696876    0.3286983   -0.0650541
 H    6.4145411   13.7016799   16.6847897  0.00   -0.2113244   -0.2942429   -0.3730017
 H    4.7334294   15.4572436   13.3675703  0.00    0.4509387   -0.0977371    0.2496546
 H    6.2423396   14.3891129   13.5024676  0.00   -0.2871957    0.3514267    0.1002684
 H    6.1308644   15.9617094   14.4733202  0.00   -0.1887701   -0.5726867   -0.5488683
 H    6.4640813   12.4982652   21.5402253  0.00    0.2422717    0.4177802    0.0781630
 H    6.3911902   14.3001155   21.9712183  0.00    0.2537136   -0.3853644   -0.1880545
 H    8.0318657   13.4512517   21.8079878  0.00   -0.4513938   -0.0160865   -0.0713909
 H    7.7906191   15.4481788   18.6357482  0.00   -0.0594095   -0.0039670    0.4874066
 H    8.5419545   15.3639877   20.3286527  0.00   -0.3503173    0.0503395   -0.2958172
 H    6.8260204   16.0312075   20.1078989  0.00    0.3823092   -0.3169204   -0.1696842
 H    2.4123495    9.8338422   19.9213366  0.00    0.1543280    0.4058550    0.1599169
 H    2.1326523   11.4612092   20.7655908  0.00    0.3359344   -0.2703717   -0.2233659
 H    3.8575043   10.8263845   20.5233823  0.00   -0.5226356   -0.1131077   -0.0748290
 H    0.7442173   11.2486857   18.5041383  0.00    0.2085913    0.3734069   -0.1292778
 H    1.4783499   12.4191999   17.2672445  0.00   -0.0985834   -0.0715829    0.4415210
 H    1.2158562   12.9665851   19.0192871  0.00    0.1216978   -0.4245832   -0.2965163
 H    4.6404217   16.7546372   20.4445855  0.00   -0.1950876   -0.1342609    0.4667283
 H    4.5386474   15.4213622   21.7283157  0.00   -0.0197993    0.4585221   -0.1704193
 H    4.0746552   17.1624453   22.1619368  0.00    0.1884367   -0.4133197   -0.3259699
 H    0.9438110   16.7930039   22.1601653  0.00    0.2387188    0.3245459   -0.2305703
 H    1.2447529   17.7671521   20.6123445  0.00    0.1328837   -0.1610465    0.5149733
 H    2.3834356   17.9562894   22.0618046  0.00   -0.4831695   -0.2266859   -0.2479172
 H    5.3621191   11.7872177   19.7243569  0.00   -0.0963207    0.3236181   -0.1380531
 H    0.5369290   15.8515385   19.4451101  0.00   -0.5415581   -0.2312322    0.4900914
 H    6.0710228   16.5912614   15.9497362  0.00    2.1476681    0.3502672   -1.2471487
 H    3.2718823   10.8825539   17.9205798  0.00   -0.1531503    0.2292839    0.2866303
 H    7.6559916   13.1125406   19.3625046  0.00   -0.1948278    0.2634622    0.2227325
 H    2.2792346   15.0965622   21.3613702  0.00    0.1232224    0.3645244   -0.1875263
 H    3.9308971   13.8258562   14.8858180  0.00    0.3912664    0.2693558    0.2069645
 H    0.2063838   15.3979461   15.9049692  0.00    0.0279186    0.1481108    0.4462105
 H    5.7029180   19.2486597   16.2461169  0.00   -0.0242283   -0.2291670    0.3639650
 H    1.1512820   18.4397788   13.2768131  0.00    0.3757032    0.0939093    0.1038026
 H    0.1125978   20.9722330   17.6868846  0.00    0.4159198   -0.0378750    0.0472925
98
 Energy =   -3839.4363172390
Mn    4.0251329   14.9258330   18.3083521  0.00   -0.0631325   -0.0957271    0.0215236
Mn    2.6674243   17.6845318   16.9974902  0.00   -0.0480984   -0.0145683   -0.0381448
 N    2.1538978   18.7093805   15.1437714  0.00   -0.0929060    0.0442280   -0.1211010
 N    4.7849882   17.4920939   17.0942460  0.00   -0.4160861    0.3031764   -0.0676314
 N    5.6531283   13.8691472   19.3391515  0.00    0.1033201   -0.1288879    0.0450817
 N    4.5660946   15.3175412   16.2797522  0.00   -0.6693145   -0.0136745    0.0406664
 N    3.7412305   12.7932843   18.7664096  0.00    0.0764720   -0.1356861    0.0484757
 N    1.7282756   19.6648093   17.1542354  0.00   -0.0766713   -0.0007028    0.0935092
 N    2.5975783   16.0446802   19.4543920  0.00    0.0414953   -0.1487458    0.0551640
 N    1.2702806   16.1760989   17.5655106  0.00    0.0274184   -0.1888990   -0.2237830
 C    4.9419409   12.7538139   19.3126888  0.00    0.0925572   -0.0800543   -0.0851996
 C    5.1435680   16.4985669   16.3133437  0.00   -0.4735101   -0.3425716    1.0174955
 C    2.1782555   18.7205302   13.6852913  0.00    0.1171203   -0.0347010    0.1206757
 C    1.4205735   15.9864482   18.8545987  0.00    0.0555837    0.1213857   -0.1253469
 C    4.8967117   14.3267069   15.2392414  0.00    0.0996958    0.2903507    0.0475248
 C    1.7004916   19.7283847   15.8408633  0.00    0.0817607   -0.0023610    0.0402327
 C    2.8933800   11.6049993   18.7177893  0.00    0.0108547    0.1931766    0.0465205
 C    5.8260582   13.2454758   15.8273759  0.00    0.0505997   -0.0844039   -0.0135593
 C    7.0004387   13.8634386   19.9145661  0.00   -0.1891756    0.0615980   -0.0515028
 C   -0.0156790   15.8870658   16.9050450  0.00    0.0033616    0.0243690    0.0507632
 C    2.6014365   20.0782215   13.1015294  0.00   -0.0684635    0.0479151   -0.0148892
 C    5.6833029   18.6606004   17.2208638  0.00   -0.1096906   -0.1420699    0.0888514
 C    1.2064129   20.7807979   17.9458037  0.00    0.1684735   -0.1355988   -0.0986810
 C    2.8210934   10.8795892   20.0725373  0.00    0.0422593   -0.0633779    0.0271169
 C   -0.7701241   17.2049220   16.6324126  0.00   -0.0895219    0.1140967   -0.0975505
 C    3.2028358   17.6661931   13.2610496  0.00   -0.0471621   -0.0909305   -0.0912738
 C    6.9723453   13.5018667   21.4089307  0.00    0.0220365   -0.0564503    0.0229777
 C    2.6199175   16.0937325   20.9279139  0.00    0.0661459    0.0835103   -0.1590933
 C    7.1174053   18.2643386   17.6131871  0.00    0.1609078   -0.0921236   -0.1099787
 C    7.5833150   15.2683850   19.7344478  0.00    0.0935195   -0.0154548   -0.0346003
 C   -0.9278862   14.9403131   17.7046014  0.00    0.0529418   -0.0745342    0.0008655
 C    1.3127435   20.3786950   19.4232681  0.00   -0.0935884    0.0199125    0.1592735
 C    5.1091346   19.5399344   18.3320118  0.00   -0.1193918    0.2163852    0.0587749
 C    1.4877563   12.0868149   18.3480452  0.00   -0.0660432   -0.0753610   -0.1285830
 C    4.0695570   16.3712996   21.3493705  0.00    0.1859908   -0.1190048    0.1127250
 C    2.0235306   22.0674102   17.7058793  0.00   -0.0580024    0.0368834   -0.0719976
 C    1.7320171   17.2283260   21.4799570  0.00   -0.1905308    0.0194550    0.0406534
 H    1.9913838   21.1013617   19.9571170  0.00   -0.2511110   -0.3006588   -0.0190012
 H    1.7480082   19.3416798   19.4823323  0.00   -0.1685719    0.4161413    0.0640038
 H    0.2945908   20.3920023   19.8930247  0.00    0.3269867   -0.0422026    0.0368074
 H    2.0983747   22.2610506   16.6006137  0.00    0.0222816    0.0849628    0.3515590
 H    3.0598728   21.9315520   18.1349924  0.00   -0.3604702    0.1079819   -0.2029519
 H    1.5208706   22.9395413   18.2117296  0.00    0.2078422   -0.2069361   -0.1740943
 H    1.3430786   20.6526824   15.3775928  0.00   -0.1542572    0.1257100   -0.2091374
 H    2.6229745   20.0146968   11.9768625  0.00   -0.0097263    0.1067597    0.3468876
 H    3.6329501   20.3358477   13.4834520  0.00   -0.3608198   -0.0263599   -0.1475093
 H    1.8723465   20.8708496   13.4221616  0.00    0.2776244   -0.1278638   -0.2116094
 H    3.2719006   17.6315476   12.1393520  0.00    0.0375959   -0.0785117    0.3061345
 H    2.8884823   16.6617219   13.6577215  0.00    0.1591805    0.2724791   -0.1410149
 H    4.2109619   17.9416526   13.6932668  0.00   -0.3583393   -0.1442366   -0.1729198
 H   -1.8010190   17.1414098   17.0815327  0.00    0.2802549    0.1424411   -0.2023535
 H   -0.8462866   17.3682287   15.5244569  0.00   -0.0558189    0.1080782    0.3352046
 H   -0.2037777   18.0558409   17.1050821  0.00   -0.2672650   -0.2137098   -0.2170358
 H   -0.3606053   14.0091524   17.9728206  0.00   -0.2756351    0.2218588   -0.0383485
 H   -1.8269912   14.6716396   17.0793123  0.00    0.2830719    0.0746431    0.2551204
 H   -1.2722182   15.4601121   18.6459907  0.00    0.0153940   -0.2684769   -0.3187173
 H    7.7978163   18.3970091   16.7321884  0.00   -0.0304439   -0.1139128    0.3023538
 H    7.1197224   17.1908589   17.9444941  0.00    0.1289304    0.3968738   -0.0738669
 H    7.4643057   18.9193471   18.4636942  0.00    0.0462594   -0.3165258   -0.3547418
 H    4.5223215   18.8858025   19.0389598  0.00    0.2017078    0.2994051   -0.1638530
 H    4.4396881   20.3162290   17.8844426  0.00    0.0781846   -0.1745777    0.2700112
 H    5.9541159   20.0316964   18.8890134  0.00   -0.4061598   -0.0241089   -0.1300470
 C    5.5448956   15.0770437   14.0590578  0.00    0.0250218   -0.1176918   -0.2146626
 H    6.5335860   12.8865686   15.0302380  0.00   -0.1918529   -0.0211970    0.2998391
 H    5.2112653   12.3848549   16.2084315  0.00    0.2887446    0.2322059   -0.0288030
 H    6.4112221   13.6969233   16.6788563  0.00   -0.1453956   -0.2555619   -0.2859911
 H    4.7406065   15.4557133   13.3714479  0.00    0.3505782   -0.0625260    0.1558501
 H    6.2378326   14.3946043   13.5039314  0.00   -0.1947409    0.2350048    0.0219122
 H    6.1278710   15.9525287   14.4644496  0.00   -0.1261794   -0.4726407   -0.5062708
 H    6.4679304   12.5048596   21.5415429  0.00    0.1864982    0.3042864    0.0895871
 H    6.3952395   14.2939439   21.9682596  0.00    0.2009573   -0.3148218   -0.1321120
 H    8.0247110   13.4509730   21.8068990  0.00   -0.3411351   -0.0215105   -0.0374977
 H    7.7897150   15.4481660   18.6434576  0.00   -0.0311351    0.0156123    0.3602307
 H    8.5364570   15.3648193   20.3239501  0.00   -0.2431394    0.0504917   -0.2297738
 H    6.8321714   16.0261632   20.1051782  0.00    0.3223023   -0.2458246   -0.1393470
 H    2.4147924    9.8402457   19.9239151  0.00    0.1134038    0.2953413    0.1375857
 H    2.1380412   11.4568661   20.7620653  0.00    0.2775368   -0.2248919   -0.1600612
 H    3.8492303   10.8245139   20.5222776  0.00   -0.3911765   -0.1179590   -0.0244759
 H    0.7474564   11.2545792   18.5020452  0.00    0.1311844    0.2719779   -0.1160272
 H    1.4767191   12.4180989   17.2741798  0.00   -0.1007995   -0.0392777    0.3083299
 H    1.2177775   12.9597591   19.0145066  0.00    0.0882179   -0.3555199   -0.2520733
 H    4.6373763   16.7524936   20.4520811  0.00   -0.1272629   -0.1052123    0.3874628
 H    4.5385019   15.4285219   21.7256732  0.00    0.0520344    0.3028710   -0.1077648
 H    4.0777431   17.1558435   22.1567993  0.00    0.1849755   -0.3326066   -0.2324111
 H    0.9474776   16.7981831   22.1565829  0.00    0.1336574    0.2583584   -0.1454499
 H    1.2467698   17.7646622   20.6205521  0.00    0.0625319   -0.0951216    0.4049859
 H    2.3756421   17.9527100   22.0578631  0.00   -0.4198493   -0.1624879   -0.1902826
 H    5.3606392   11.7922890   19.7221801  0.00   -0.0548152    0.2258028   -0.1019274
 H    0.5290810   15.8479373   19.4524362  0.00   -0.2784339   -0.1735141    0.3010761
 H    6.0936560   16.5957628   15.9339775  0.00    1.3145511    0.2457893   -0.8654400
 H    3.2694287   10.8862517   17.9251840  0.00   -0.1287764    0.1996725    0.2443790
 H    7.6528643   13.1167624   19.3660687  0.00   -0.1641691    0.2205017    0.1857798
 H    2.2812060   15.1023997   21.3583356  0.00    0.1025365    0.3053349   -0.1665402
 H    3.9372339   13.8302527   14.8891803  0.00    0.3619381    0.2435579    0.1730428
 H    0.2068785   15.4002869   15.9120731  0.00    0.0366622    0.1110470    0.3560728
 H    5.7025077   19.2449397   16.2519221  0.00   -0.0265752   -0.2025874    0.2964974
 H    1.1573234   18.4412782   13.2784925  0.00    0.3213697    0.0757242    0.0896122
 H    0.1192853   20.9716160   17.6876107  0.00    0.3577920   -0.0360837    0.0283752
98
 Energy =   -3839.4673011280
Mn    4.0218791   14.9200443   18.3101107  0.00   -0.0841923   -0.1116704    0.0643888
Mn    2.6638940   17.6840724   16.9953307  0.00   -0.0778486   -0.0053848   -0.0518288
 N    2.1500339   18.7104777   15.1406592  0.00   -0.0700958    0.0852198    0.0175144
 N    4.7652720   17.5034637   17.0902419  0.00   -0.1619176    0.0760991   -0.0409817
 N    5.6553879   13.8626558   19.3400610  0.00    0.0498054    0.0383738   -0.0224188
 N    4.5371199   15.3272082   16.2837597  0.00   -0.4853854   -0.2953444   -0.0639014
 N    3.7460979   12.7886327   18.7687776  0.00   -0.0148134   -0.0149902   -0.0174175
 N    1.7259481   19.6623090   17.1566304  0.00   -0.0188276   -0.0221610   -0.0212912
 N    2.6007959   16.0378316   19.4547897  0.00   -0.1484569   -0.0809106   -0.0819766
 N    1.2735882   16.1674231   17.5551810  0.00    0.0080599   -0.1547772    0.0823924
 C    4.9460195   12.7519539   19.3079999  0.00    0.0541408   -0.0806685   -0.0430419
 C    5.1455320   16.4787929   16.3509798  0.00    0.4977458    0.2659641    0.3391327
 C    2.1847083   18.7202086   13.6885897  0.00    0.0710890    0.0099443    0.0609578
 C    1.4151468   15.9905869   18.8535146  0.00    0.1581381    0.0617265   -0.1231740
 C    4.9021818   14.3363216   15.2407915  0.00    0.0821785    0.2249276    0.1255626
 C    1.7024122   19.7326756   15.8411826  0.00    0.0448620   -0.0313902   -0.0132593
 C    2.8922161   11.6123815   18.7213927  0.00    0.0148799    0.0825596    0.0580001
 C    5.8263774   13.2457577   15.8254597  0.00   -0.0690750    0.0880694   -0.0347110
 C    6.9933848   13.8671057   19.9146436  0.00   -0.0856187    0.0238591    0.0153856
 C   -0.0178044   15.8894349   16.9086468  0.00    0.0076654    0.0432371    0.0414499
 C    2.5984591   20.0770551   13.1022656  0.00   -0.0478544   -0.0772299    0.0376306
 C    5.6786116   18.6567435   17.2289091  0.00   -0.0786911   -0.1095868    0.0542192
 C    1.2146205   20.7760269   17.9446857  0.00    0.1048219   -0.0631339   -0.0090000
 C    2.8222787   10.8790290   20.0708300  0.00    0.0095873    0.0340173   -0.0850531
 C   -0.7723518   17.2067196   16.6293488  0.00    0.0122107   -0.0568693   -0.0165362
 C    3.1996549   17.6645636   13.2585559  0.00   -0.0837604    0.0389127   -0.0160110
 C    6.9731182   13.5007111   21.4066888  0.00    0.0067889    0.0081316   -0.0973798
 C    2.6237422   16.0997613   20.9226870  0.00    0.0533750    0.0738997   -0.0776459
 C    7.1201777   18.2610799   17.6079825  0.00   -0.0826773    0.0057741   -0.0819568
 C    7.5853258   15.2649868   19.7334502  0.00   -0.0077310   -0.1150435    0.0041504
 C   -0.9243560   14.9397070   17.7031963  0.00    0.0849040    0.0477742   -0.0502242
 C    1.3091719   20.3806740   19.4259188  0.00   -0.0531143    0.0602546   -0.0388103
 C    5.1063636   19.5458881   18.3321752  0.00   -0.0404702    0.0328209   -0.0344420
 C    1.4879082   12.0835000   18.3439251  0.00    0.0786843   -0.0673842   -0.0287693
 C    4.0738155   16.3666625   21.3523032  0.00   -0.0320367   -0.0774750    0.0159699
 C    2.0201206   22.0662288   17.7034471  0.00   -0.0778719   -0.0848454   -0.0084404
 C    1.7267415   17.2267377   21.4802395  0.00   -0.0097265   -0.0918612   -0.0306147
 H    1.9800363   21.0877973   19.9574592  0.00   -0.1104960   -0.1316454    0.0737166
 H    1.7402911   19.3604128   19.4860567  0.00   -0.0740185    0.1702332    0.0758161
 H    0.3080726   20.3899550   19.8962608  0.00    0.1026232   -0.0269364    0.0954365
 H    2.0996351   22.2659116   16.6156505  0.00    0.0185624    0.0983522    0.1128533
 H    3.0433669   21.9369474   18.1253329  0.00   -0.1425112    0.0760300   -0.1125125
 H    1.5301550   22.9307744   18.2039137  0.00    0.0880336   -0.0691306   -0.0742804
 H    1.3365406   20.6560836   15.3687003  0.00   -0.1029898    0.0599265   -0.1361064
 H    2.6224432   20.0199338   11.9920783  0.00   -0.0102254    0.0675399    0.1276768
 H    3.6163561   20.3351476   13.4765438  0.00   -0.1546983    0.0217356   -0.0696875
 H    1.8844624   20.8663693   13.4122835  0.00    0.1109410    0.0043522   -0.1244363
 H    3.2738008   17.6274537   12.1520959  0.00    0.0276625   -0.0698888    0.0860686
 H    2.8957663   16.6729599   13.6513609  0.00    0.0718173    0.0673202   -0.0577991